/*--------------------------------*- C++ -*----------------------------------*\
| =========                 |                                                 |
| \\      /  F ield         | OpenFOAM: The Open Source CFD Toolbox           |
|  \\    /   O peration     | Version:  2206                                  |
|   \\  /    A nd           | Website:  www.openfoam.com                      |
|    \\/     M anipulation  |                                                 |
\*---------------------------------------------------------------------------*/
FoamFile
{
    version     2.0;
    format      ascii;
    arch        "LSB;label=32;scalar=64";
    class       volVectorField;
    location    "0.04";
    object      U;
}
// * * * * * * * * * * * * * * * * * * * * * * * * * * * * * * * * * * * * * //

dimensions      [0 1 -1 0 0 0 0];

internalField   nonuniform List<vector> 
4800
(
(3.40404 1.25022e-15 0)
(3.40404 -8.96155e-15 0)
(3.40404 1.11819e-14 0)
(3.40404 5.71399e-14 0)
(3.40404 6.1994e-14 0)
(3.40404 1.02981e-13 0)
(3.40404 1.25788e-13 0)
(3.40404 1.77627e-13 0)
(3.40404 2.04825e-13 0)
(3.40404 1.3647e-13 0)
(3.40404 1.78791e-13 0)
(3.40404 2.18054e-13 0)
(3.40404 1.78721e-13 0)
(3.40404 1.10309e-13 0)
(3.40404 9.33295e-14 0)
(3.40404 1.1775e-13 0)
(3.40404 1.47409e-13 0)
(3.40404 1.49739e-13 0)
(3.40404 1.55107e-13 0)
(3.40404 1.16964e-13 0)
(3.40404 6.36543e-14 0)
(3.40404 -5.01753e-14 0)
(3.40404 -5.43327e-14 0)
(3.40404 2.04002e-14 0)
(3.40404 -7.56264e-14 0)
(3.40404 -1.49969e-13 0)
(3.40404 -1.37367e-13 0)
(3.40404 -9.72501e-14 0)
(3.40404 -6.47412e-14 0)
(3.40404 -4.66014e-14 0)
(3.40404 -4.12905e-14 0)
(3.40404 2.62712e-15 0)
(3.40404 1.14997e-13 0)
(3.40404 1.51913e-13 0)
(3.40404 2.1287e-13 0)
(3.40404 1.1293e-13 0)
(3.40404 -2.27173e-14 0)
(3.40404 -3.91134e-14 0)
(3.40404 2.44709e-14 0)
(3.40404 8.33277e-14 0)
(3.40404 -1.39291e-14 0)
(3.40404 -1.12753e-14 0)
(3.40404 1.16253e-14 0)
(3.40404 5.45428e-14 0)
(3.40404 6.37577e-14 0)
(3.40404 5.4146e-14 0)
(3.40404 1.38277e-13 0)
(3.40404 1.39727e-13 0)
(3.40404 1.49809e-13 0)
(3.40404 1.52126e-13 0)
(3.40404 1.46359e-13 0)
(3.40404 1.16583e-13 0)
(3.40404 9.02356e-14 0)
(3.40404 1.03251e-14 0)
(3.40404 -7.10456e-15 0)
(3.40404 7.85802e-15 0)
(3.40404 1.05675e-13 0)
(3.40404 2.24465e-13 0)
(3.40404 2.09443e-13 0)
(3.40404 1.13236e-13 0)
(3.40404 4.48044e-14 0)
(3.40404 -1.1755e-13 0)
(3.40404 -1.08049e-13 0)
(3.40404 -1.10919e-14 0)
(3.40404 -4.39309e-14 0)
(3.40404 -1.93527e-13 0)
(3.40404 -2.22538e-13 0)
(3.40404 -1.91866e-14 0)
(3.40404 -1.1782e-14 0)
(3.40404 -3.03219e-14 0)
(3.40404 3.28123e-14 0)
(3.40404 1.32886e-13 0)
(3.40404 1.78811e-13 0)
(3.40404 2.06102e-13 0)
(3.40404 2.6791e-13 0)
(3.40404 1.13943e-13 0)
(3.40404 2.23039e-14 0)
(3.40404 1.1532e-14 0)
(3.40404 8.46913e-14 0)
(3.40404 4.58188e-14 0)
(3.40404 -1.42358e-14 0)
(3.40404 2.14604e-14 0)
(3.40404 1.14353e-14 0)
(3.40404 -1.72663e-14 0)
(3.40404 -5.37426e-15 0)
(3.40404 2.16504e-14 0)
(3.40404 2.75248e-14 0)
(3.40404 8.43479e-15 0)
(3.40404 -1.76997e-14 0)
(3.40404 8.42479e-15 0)
(3.40404 -3.4946e-14 0)
(3.40404 -1.42238e-13 0)
(3.40404 -1.14493e-13 0)
(3.40404 -4.05503e-14 0)
(3.40404 -1.85765e-14 0)
(3.40404 -3.884e-14 0)
(3.40404 -3.11821e-14 0)
(3.40404 -7.82802e-15 0)
(3.40404 -2.73314e-14 0)
(3.40404 -1.55594e-14 0)
(3.40404 2.14204e-14 0)
(3.40404 5.24757e-14 0)
(3.40404 5.76566e-14 0)
(3.40404 6.26341e-14 0)
(3.40404 6.66115e-14 0)
(3.40404 -3.2909e-14 0)
(3.40404 8.62149e-15 0)
(3.40404 4.25407e-14 0)
(3.40404 3.4746e-14 0)
(3.40404 7.24792e-15 0)
(3.40404 1.10196e-13 0)
(3.40404 2.93831e-13 0)
(3.40404 2.32153e-13 0)
(3.40404 1.46295e-13 0)
(3.40404 5.75833e-14 0)
(3.40404 1.958e-14 0)
(3.40404 6.06538e-14 0)
(3.40404 2.16571e-14 0)
(3.40404 2.01368e-14 0)
(3.40404 -7.03135e-15 0)
(3.40404 3.04319e-14 0)
(3.40404 8.73351e-14 0)
(3.40404 6.83218e-14 0)
(3.40404 1.88166e-14 0)
(3.40404 -1.89999e-14 0)
(3.40404 -2.14304e-14 0)
(3.40404 -5.38193e-14 0)
(3.40404 -4.38909e-14 0)
(3.40404 -5.35092e-14 0)
(3.40404 -8.74051e-14 0)
(3.40404 -1.138e-13 0)
(3.40404 -5.26758e-14 0)
(3.40404 -1.17454e-14 0)
(3.40404 4.72882e-14 0)
(3.40404 1.35367e-13 0)
(3.40404 1.42631e-13 0)
(3.40404 4.86917e-14 0)
(3.40404 -1.3749e-14 0)
(3.40404 -9.21492e-15 0)
(3.40404 5.35993e-14 0)
(3.40404 8.59148e-14 0)
(3.40404 9.88971e-14 0)
(3.40404 8.20642e-14 0)
(3.40404 5.74933e-14 0)
(3.40404 8.44412e-14 0)
(3.40404 1.29542e-13 0)
(3.40404 7.19024e-14 0)
(3.40404 4.33742e-14 0)
(3.40404 2.75748e-14 0)
(3.40404 2.52344e-14 0)
(3.40404 6.81118e-15 0)
(3.40404 5.5913e-14 0)
(3.40404 1.04211e-13 0)
(3.40404 6.02004e-14 0)
(3.40404 -2.31707e-14 0)
(3.40404 5.13422e-15 0)
(3.40404 4.34108e-14 0)
(3.40404 8.05772e-14 0)
(3.40404 1.23248e-13 0)
(3.40404 1.03596e-13 0)
(3.40404 3.86733e-15 0)
(3.40404 -1.10819e-14 0)
(3.40404 -1.24688e-14 0)
(3.40404 -3.15588e-14 0)
(3.40404 -7.77401e-14 0)
(3.40404 -1.3758e-13 0)
(3.40404 -1.19491e-13 0)
(3.40404 -8.99089e-14 0)
(3.40404 -7.20224e-14 0)
(3.40404 -4.39309e-14 0)
(3.40404 -2.09036e-14 0)
(3.40404 4.2184e-14 0)
(3.40404 6.95187e-14 0)
(3.40404 1.50639e-13 0)
(3.40404 1.49276e-13 0)
(3.40404 1.44822e-13 0)
(3.40404 9.35662e-14 0)
(3.40404 4.64213e-14 0)
(3.40404 4.09704e-14 0)
(3.40404 4.50478e-14 0)
(3.40404 5.50828e-14 0)
(3.40404 5.21657e-14 0)
(3.40404 1.85605e-13 0)
(3.40404 2.17944e-13 0)
(3.40404 2.7105e-13 0)
(3.40404 3.15278e-13 0)
(3.40404 2.1044e-13 0)
(3.40404 1.16824e-13 0)
(3.40404 8.2731e-14 0)
(3.40404 -5.08088e-15 0)
(3.40404 -1.26605e-13 0)
(3.40404 -1.43708e-13 0)
(3.40404 -6.3791e-14 0)
(3.40404 -4.61413e-15 0)
(3.40404 -3.46993e-14 0)
(3.40404 -5.65698e-14 0)
(3.40404 3.03319e-14 0)
(3.40404 1.15233e-13 0)
(3.40404 7.53697e-14 0)
(3.40404 1.79804e-13 0)
(3.40404 -2.13137e-14 0)
(3.40404 -5.10188e-14 0)
(3.40404 -2.75414e-14 0)
(3.40404 -4.52345e-14 0)
(3.40404 -8.53514e-14 0)
(3.40404 -1.82785e-13 0)
(3.40404 -1.83818e-13 0)
(3.40404 -1.18297e-13 0)
(3.40404 -7.56097e-14 0)
(3.40404 -5.50462e-14 0)
(3.40404 -4.18439e-14 0)
(3.40404 -3.51561e-14 0)
(3.40404 -3.25156e-14 0)
(3.40404 1.93833e-14 0)
(3.40404 -1.44492e-14 0)
(3.40404 -9.2716e-15 0)
(3.40404 -4.96052e-14 0)
(3.40404 -5.77366e-14 0)
(3.40404 -8.25343e-14 0)
(3.40404 -3.72098e-14 0)
(3.40404 4.83917e-14 0)
(3.40404 8.92888e-14 0)
(3.40404 1.04698e-13 0)
(3.40404 1.57107e-13 0)
(3.40404 2.58048e-13 0)
(3.40404 2.97635e-13 0)
(3.40404 2.83109e-13 0)
(3.40404 2.61022e-13 0)
(3.40404 2.60692e-13 0)
(3.40404 1.79044e-13 0)
(3.40404 1.16197e-13 0)
(3.40404 8.22309e-14 0)
(3.40404 1.09286e-13 0)
(3.40404 1.62405e-13 0)
(3.40404 1.62608e-13 0)
(3.40404 9.8337e-14 0)
(3.40404 2.05842e-13 0)
(3.40404 2.07559e-13 0)
(3.40404 1.70129e-13 0)
(3.40404 1.13382e-13 0)
(3.40404 1.85432e-14 0)
(3.40404 1.02051e-14 0)
(3.40404 2.14437e-14 0)
(3.40404 -1.72596e-14 0)
(3.40404 -5.6153e-14 0)
(3.40404 -8.15708e-14 0)
(3.40404 -1.08149e-13 0)
(3.40404 -6.66215e-14 0)
(3.40404 -5.60163e-14 0)
(3.40404 -1.28989e-13 0)
(3.40404 -1.26609e-13 0)
(3.40404 -1.62098e-13 0)
(3.40404 -1.79048e-13 0)
(3.40404 -1.58417e-13 0)
(3.40404 -1.32326e-13 0)
(3.40404 -7.77568e-14 0)
(3.40404 -6.13206e-14 0)
(3.40404 -9.0589e-14 0)
(3.40404 -8.62949e-14 0)
(3.40404 -8.38178e-14 0)
(3.40404 -7.61198e-14 0)
(3.40404 -3.93501e-14 0)
(3.40404 -5.26058e-14 0)
(3.40404 1.19621e-14 0)
(3.40404 6.11272e-14 0)
(3.40404 9.68367e-14 0)
(3.40404 1.19007e-13 0)
(3.40404 8.86686e-14 0)
(3.40404 1.35693e-13 0)
(3.40404 2.05305e-13 0)
(3.40404 1.91486e-13 0)
(3.40404 1.64568e-13 0)
(3.40404 1.44512e-13 0)
(3.40404 7.27926e-14 0)
(3.40404 6.21607e-14 0)
(3.40404 1.50279e-13 0)
(3.40404 9.73435e-14 0)
(3.40404 -1.01751e-14 0)
(3.40404 3.35491e-14 0)
(3.40404 -5.33816e-15 0)
(3.40404 3.43059e-15 0)
(3.40404 -3.71397e-15 0)
(3.40404 -1.90666e-14 0)
(3.40404 -3.09187e-14 0)
(3.40404 2.1167e-14 0)
(3.40404 3.832e-14 0)
(3.40404 6.45445e-15 0)
(3.40404 -7.25059e-14 0)
(3.40404 -1.06802e-13 0)
(3.40404 -5.72799e-14 0)
(3.40404 -5.25857e-14 0)
(3.40404 -1.51299e-13 0)
(3.40404 -1.84218e-13 0)
(3.40404 -1.59161e-13 0)
(3.40404 -1.04598e-13 0)
(3.40404 -5.75366e-14 0)
(3.40404 -4.4661e-14 0)
(3.40404 -5.762e-14 0)
(3.40404 -2.59611e-14 0)
(3.40404 -4.96486e-14 0)
(3.40404 -2.87916e-14 0)
(3.40404 3.10387e-15 0)
(3.40404 -1.50026e-15 0)
(3.40404 5.56896e-14 0)
(3.40404 8.56881e-14 0)
(3.40404 8.84686e-14 0)
(3.40404 1.32903e-13 0)
(3.40404 1.76177e-13 0)
(3.40404 1.70039e-13 0)
(3.40404 1.62645e-13 0)
(3.40404 7.07856e-14 0)
(3.40404 3.93668e-14 0)
(3.40404 5.17823e-14 0)
(3.40404 -2.15271e-14 0)
(3.40404 -2.3334e-14 0)
(3.40404 4.96419e-15 0)
(3.40404 -4.94419e-14 0)
(3.40404 -7.07922e-14 0)
(3.40404 -5.44027e-14 0)
(3.40404 -2.66226e-14 0)
(3.40404 -1.66595e-14 0)
(3.40404 2.65146e-14 0)
(3.40404 4.95752e-14 0)
(3.40404 8.64049e-14 0)
(3.40404 1.39941e-13 0)
(3.40404 1.61408e-13 0)
(3.40404 1.24488e-13 0)
(3.40404 -1.72363e-14 0)
(3.40404 -5.47661e-14 0)
(3.40404 -2.23905e-14 0)
(3.40404 -3.04286e-14 0)
(3.40404 -1.04171e-13 0)
(3.40404 -1.71083e-13 0)
(3.40404 -1.63728e-13 0)
(3.40404 -1.41614e-13 0)
(3.40404 -1.42598e-13 0)
(3.40404 -1.43458e-13 0)
(3.40404 -1.30879e-13 0)
(3.40404 -1.06488e-13 0)
(3.40404 -7.07689e-14 0)
(3.40404 -1.48926e-14 0)
(3.40404 3.25923e-14 0)
(3.40404 4.97819e-14 0)
(3.40404 1.16753e-14 0)
(3.40404 1.87766e-14 0)
(3.40404 9.15525e-14 0)
(3.40404 1.24582e-13 0)
(3.40404 1.54983e-13 0)
(3.40404 1.29532e-13 0)
(3.40404 1.17847e-13 0)
(3.40404 1.52863e-13 0)
(3.40404 1.50559e-13 0)
(3.40404 4.85684e-14 0)
(3.40404 -1.23821e-14 0)
(3.40404 -2.36708e-15 0)
(3.40404 -2.84249e-14 0)
(3.40404 -1.12953e-14 0)
(3.40404 -5.72766e-14 0)
(3.40404 -2.95418e-14 0)
(3.40404 -5.91707e-15 0)
(3.40404 1.02884e-14 0)
(3.40404 9.95839e-15 0)
(3.40404 2.19171e-14 0)
(3.40404 4.12338e-14 0)
(3.40404 9.73168e-15 0)
(3.40404 1.21678e-13 0)
(3.40404 1.89979e-13 0)
(3.40404 1.7273e-13 0)
(3.40404 1.30759e-13 0)
(3.40404 -3.30057e-15 0)
(3.40404 -2.45376e-14 0)
(3.40404 4.35309e-14 0)
(3.40404 -8.18541e-14 0)
(3.40404 -1.28836e-13 0)
(3.40404 -1.63722e-13 0)
(3.40404 -2.64049e-13 0)
(3.40404 -2.49866e-13 0)
(3.40404 -1.36033e-13 0)
(3.40404 -1.30929e-13 0)
(3.40404 -1.48186e-13 0)
(3.40404 -8.50247e-14 0)
(3.40404 -3.12721e-15 0)
(3.40404 2.08069e-14 0)
(3.40404 1.70863e-14 0)
(3.40404 -2.97885e-14 0)
(3.40404 -1.30849e-13 0)
(3.40404 -1.31323e-13 0)
(3.40404 -1.28909e-13 0)
(3.40404 -1.12419e-13 0)
(3.40404 3.94802e-14 0)
(3.40404 6.96287e-14 0)
(3.40404 6.14373e-14 0)
(3.40404 3.56562e-14 0)
(3.40404 9.14091e-14 0)
(3.40404 5.31392e-14 0)
(3.40404 2.90317e-14 0)
(3.40404 8.7115e-15 0)
(3.40404 1.37424e-14 0)
(3.40404 -2.28306e-14 0)
(3.40404 -2.84193e-14 0)
(3.40404 1.921e-14 0)
(3.40404 -2.66113e-14 0)
(3.40404 -8.81586e-14 0)
(3.40404 -1.43918e-13 0)
(3.40404 -1.58711e-13 0)
(3.40404 -1.14036e-13 0)
(3.40404 -7.80802e-14 0)
(3.40404 -5.26291e-14 0)
(3.40404 -5.96303e-14 0)
(3.40404 -8.10207e-14 0)
(3.40404 -5.49828e-14 0)
(3.40404 -5.56463e-14 0)
(3.40404 -5.29758e-14 0)
(3.40404 -1.69013e-13 0)
(3.40404 -2.00938e-13 0)
(3.40404 -1.01874e-13 0)
(3.40404 -5.32192e-14 0)
(3.40404 -4.13371e-14 0)
(3.40404 -6.97854e-14 0)
(3.40404 -1.32703e-13 0)
(3.40404 -1.64938e-13 0)
(3.40404 -8.86753e-14 0)
(3.40404 1.10752e-14 0)
(3.40404 3.65163e-14 0)
(3.40404 -4.61746e-15 0)
(3.40404 -8.00438e-14 0)
(3.40404 -1.28629e-13 0)
(3.40404 -1.30653e-13 0)
(3.40404 -1.22661e-13 0)
(3.40404 -1.25978e-13 0)
(3.40404 -1.33643e-13 0)
(3.40404 -1.09662e-13 0)
(3.40404 -1.66695e-15 0)
(3.40404 1.18887e-14 0)
(3.40404 -3.48227e-14 0)
(3.40404 -9.67834e-15 0)
(3.40404 7.80135e-15 0)
(3.40404 1.11063e-13 0)
(3.40404 9.10724e-14 0)
(3.40404 7.54516e-14 0)
(3.40404 -6.65115e-15 0)
(3.40404 -7.25459e-15 0)
(3.40404 -4.4351e-14 0)
(3.40404 -4.54278e-14 0)
(3.40404 -4.60646e-14 0)
(3.40404 -1.20211e-13 0)
(3.40404 -2.22178e-13 0)
(3.40404 -2.04205e-13 0)
(3.40404 -1.81711e-13 0)
(3.40404 -8.72417e-14 0)
(3.40404 -6.24841e-14 0)
(3.40404 -6.13106e-14 0)
(3.40404 -5.08554e-14 0)
(3.40404 -2.73981e-14 0)
(3.40404 -3.79065e-14 0)
(3.40404 3.61396e-15 0)
(3.40404 4.11004e-14 0)
(3.40404 3.89601e-14 0)
(3.40404 5.86435e-15 0)
(3.40404 -7.42728e-14 0)
(3.40404 -1.27712e-13 0)
(3.40404 -8.68217e-14 0)
(3.40404 2.3284e-14 0)
(3.40404 3.98869e-14 0)
(3.40404 1.5186e-14 0)
(3.40404 5.01753e-14 0)
(3.40404 3.80199e-14 0)
(3.40404 4.4431e-14 0)
(3.40404 2.12503e-14 0)
(3.40404 -5.5713e-14 0)
(3.40404 -1.1686e-13 0)
(3.40404 -6.44845e-14 0)
(3.40404 5.79033e-14 0)
(3.40404 4.92518e-14 0)
(3.40404 2.85016e-14 0)
(3.40404 1.00794e-13 0)
(3.40404 1.38267e-13 0)
(3.40404 1.11743e-13 0)
(3.40404 7.70333e-14 0)
(3.40404 5.4512e-14 0)
(3.40404 -2.52477e-14 0)
(3.40404 2.95051e-15 0)
(3.40404 6.17507e-14 0)
(3.40404 1.16167e-13 0)
(3.40404 8.03505e-14 0)
(3.40404 8.48813e-15 0)
(3.40404 -2.34541e-14 0)
(3.40404 -2.17771e-14 0)
(3.40404 -8.03139e-15 0)
(3.40404 3.03686e-14 0)
(3.40404 2.5381e-14 0)
(3.40404 1.82732e-14 0)
(3.40404 3.45726e-14 0)
(3.40404 9.51064e-14 0)
(3.40404 7.75134e-14 0)
(3.40404 -1.19621e-14 0)
(3.40404 2.62712e-14 0)
(3.40404 4.82983e-14 0)
(3.40404 1.28589e-14 0)
(3.40404 3.38792e-14 0)
(3.40404 1.18967e-13 0)
(3.40404 5.41827e-14 0)
(3.40404 3.77665e-14 0)
(3.40404 7.15324e-14 0)
(3.40404 1.06332e-13 0)
(3.40404 9.99039e-14 0)
(3.40404 7.42228e-14 0)
(3.40404 9.29794e-14 0)
(3.40404 9.34461e-14 0)
(3.40404 5.99103e-14 0)
(3.40404 -4.89184e-14 0)
(3.40404 -1.00767e-13 0)
(3.40404 -1.41824e-14 0)
(3.40404 3.04519e-14 0)
(3.40404 8.2871e-14 0)
(3.40404 1.18644e-13 0)
(3.40404 1.98104e-13 0)
(3.40404 1.81515e-13 0)
(3.40404 9.42029e-14 0)
(3.40404 -2.17327e-14 0)
(3.40404 1.82298e-14 0)
(3.40404 6.05438e-15 0)
(3.40404 1.99901e-14 0)
(3.40404 1.19721e-14 0)
(3.40404 2.75548e-14 0)
(3.40404 6.46712e-14 0)
(3.40404 1.54507e-13 0)
(3.40404 1.92723e-13 0)
(3.40404 1.96557e-13 0)
(3.40404 1.68069e-13 0)
(3.40404 1.45905e-13 0)
(3.40404 8.43346e-14 0)
(3.40404 8.25509e-14 0)
(3.40404 1.25435e-13 0)
(3.40404 1.72146e-13 0)
(3.40404 -2.15371e-15 0)
(3.40404 -1.32403e-13 0)
(3.40404 -7.29459e-14 0)
(3.40404 1.77497e-14 0)
(3.40404 1.05018e-13 0)
(3.40404 1.18264e-13 0)
(3.40404 7.717e-14 0)
(3.40404 4.58513e-14 0)
(3.40404 1.44075e-13 0)
(3.40404 2.01438e-13 0)
(3.40404 1.55007e-13 0)
(3.40404 6.86585e-14 0)
(3.40404 -6.76784e-16 0)
(3.40404 1.12119e-14 0)
(3.40404 2.46243e-14 0)
(3.40404 3.35625e-14 0)
(3.40404 -2.99052e-15 0)
(3.40404 -5.47428e-14 0)
(3.40404 -5.72599e-14 0)
(3.40404 -1.94067e-14 0)
(3.40404 4.57446e-14 0)
(3.40404 1.01121e-13 0)
(3.40404 1.08372e-13 0)
(3.40404 4.47611e-14 0)
(3.40404 -1.82472e-14 0)
(3.40404 1.936e-14 0)
(3.40404 3.85066e-15 0)
(3.40404 -2.45309e-14 0)
(3.40404 -1.25922e-14 0)
(3.40404 1.38691e-15 0)
(3.40404 8.90254e-14 0)
(3.40404 1.50936e-13 0)
(3.40404 1.86025e-13 0)
(3.40404 1.60111e-13 0)
(3.40404 1.3758e-13 0)
(3.40404 1.12759e-13 0)
(3.40404 6.32776e-14 0)
(3.40404 3.81366e-14 0)
(3.40404 2.12903e-14 0)
(3.40404 6.67815e-14 0)
(3.40404 7.95637e-14 0)
(3.40404 7.12356e-14 0)
(3.40404 3.69197e-14 0)
(3.40404 1.20411e-13 0)
(3.40404 2.03722e-13 0)
(3.40404 1.44472e-13 0)
(3.40404 4.18506e-14 0)
(3.40404 -6.82818e-14 0)
(3.40404 -8.66983e-14 0)
(3.40404 -5.5903e-14 0)
(3.40404 -2.96318e-14 0)
(3.40404 -2.00001e-14 0)
(3.40404 -3.1032e-14 0)
(3.40404 1.57461e-14 0)
(3.40404 6.45111e-15 0)
(3.40404 1.30956e-14 0)
(3.40404 -5.10855e-14 0)
(3.40404 -1.40464e-13 0)
(3.40404 -1.5302e-13 0)
(3.40404 -1.55887e-13 0)
(3.40404 -1.17464e-13 0)
(3.40404 -8.62282e-14 0)
(3.40404 -2.36874e-14 0)
(3.40404 4.0307e-15 0)
(3.40404 -1.02191e-14 0)
(3.40404 -1.18854e-14 0)
(3.40404 7.02788e-15 0)
(3.40404 3.24056e-14 0)
(3.40404 5.06287e-14 0)
(3.40404 2.73881e-14 0)
(3.40404 3.06453e-14 0)
(3.40404 3.54328e-14 0)
(3.40404 2.09636e-14 0)
(3.40404 1.61761e-14 0)
(3.40404 8.40712e-14 0)
(3.40404 1.28956e-13 0)
(3.40404 1.3467e-13 0)
(3.40404 1.06652e-13 0)
(3.40404 2.11703e-15 0)
(3.40404 -5.4076e-15 0)
(3.40404 6.27942e-14 0)
(3.40404 2.11573e-13 0)
(3.40404 2.3323e-13 0)
(3.40404 1.12663e-13 0)
(3.40404 5.39026e-14 0)
(3.40404 4.46677e-14 0)
(3.40404 3.33458e-14 0)
(3.40404 -3.43959e-14 0)
(3.40404 -1.45552e-13 0)
(3.40404 -2.51914e-13 0)
(3.40404 -2.93431e-13 0)
(3.40404 -2.39985e-13 0)
(3.40404 -7.98505e-14 0)
(3.40404 1.98034e-15 0)
(3.40404 2.29506e-14 0)
(3.40404 2.42375e-14 0)
(3.40404 -5.14456e-14 0)
(3.40404 -5.68565e-14 0)
(3.40404 -3.02386e-14 0)
(3.40404 -8.0824e-14 0)
(3.40404 -1.30619e-13 0)
(3.40404 -1.98858e-13 0)
(3.40404 -1.32103e-13 0)
(3.40404 7.83335e-14 0)
(3.40404 1.29005e-13 0)
(3.40404 -1.5476e-14 0)
(3.40404 -1.77297e-14 0)
(3.40404 -8.70484e-15 0)
(3.40404 -7.09789e-15 0)
(3.40404 2.94418e-14 0)
(3.40404 2.46709e-16 0)
(3.40404 -1.05535e-13 0)
(3.40404 -1.26642e-13 0)
(3.40404 -6.86219e-14 0)
(3.40404 2.83649e-14 0)
(3.40404 1.40984e-13 0)
(3.40404 1.3429e-13 0)
(3.40404 1.43788e-13 0)
(3.40404 1.36704e-13 0)
(3.40404 5.92136e-14 0)
(3.40404 7.17924e-14 0)
(3.40404 9.34128e-14 0)
(3.40404 8.91154e-14 0)
(3.40404 5.92269e-14 0)
(3.40404 1.21721e-14 0)
(3.40404 -5.70465e-14 0)
(3.40404 -8.91054e-14 0)
(3.40404 -1.02314e-13 0)
(3.40404 -1.20778e-13 0)
(3.40404 -2.04532e-13 0)
(3.40404 -1.9476e-13 0)
(3.40404 -1.3489e-13 0)
(3.40404 -7.61632e-14 0)
(3.40404 -2.22738e-14 0)
(3.40404 2.58311e-14 0)
(3.40404 2.5121e-14 0)
(3.40404 4.09037e-14 0)
(3.40404 -4.23406e-16 0)
(3.40404 -1.1612e-14 0)
(3.40404 -2.87883e-14 0)
(3.40404 -1.13983e-13 0)
(3.40404 -1.84892e-13 0)
(3.40404 -1.67839e-13 0)
(3.40404 -9.80469e-14 0)
(3.40404 2.87245e-14 0)
(3.40404 -6.5378e-15 0)
(3.40404 -1.14453e-14 0)
(3.40404 -1.77031e-15 0)
(3.40404 -2.51543e-14 0)
(3.40404 -1.68396e-14 0)
(3.40404 -5.68732e-14 0)
(3.40404 -4.77449e-14 0)
(3.40404 -1.84065e-14 0)
(3.40404 -2.03802e-14 0)
(3.40404 4.69081e-15 0)
(3.40404 6.07272e-14 0)
(3.40404 1.02208e-13 0)
(3.40404 1.07152e-13 0)
(3.40404 1.16703e-13 0)
(3.40404 7.69733e-14 0)
(3.40404 1.01578e-13 0)
(3.40404 7.42428e-14 0)
(3.40404 4.26107e-14 0)
(3.40404 -8.7115e-15 0)
(3.40404 -2.69513e-14 0)
(3.40404 -3.75165e-14 0)
(3.40404 -6.30175e-14 0)
(3.40404 -6.7565e-14 0)
(3.40404 -4.42743e-15 0)
(3.40404 -4.31074e-15 0)
(3.40404 9.54498e-15 0)
(3.40404 4.73748e-15 0)
(3.40404 -1.30856e-14 0)
(3.40404 1.92667e-14 0)
(3.40404 1.42291e-14 0)
(3.40404 -2.47309e-14 0)
(3.40404 -9.04156e-15 0)
(3.40404 -3.34224e-14 0)
(3.40404 -8.15441e-14 0)
(3.40404 -8.94554e-14 0)
(3.40404 -1.7538e-13 0)
(3.40404 -1.5397e-13 0)
(3.40404 -1.69393e-13 0)
(3.40404 -1.73713e-13 0)
(3.40404 -1.01856e-13 0)
(3.40404 1.91533e-14 0)
(3.40404 4.28507e-14 0)
(3.40404 6.76183e-14 0)
(3.40404 6.74783e-14 0)
(3.40404 1.62195e-14 0)
(3.40404 -6.49445e-14 0)
(3.40404 -4.50811e-14 0)
(3.40404 6.11372e-14 0)
(3.40404 1.09759e-13 0)
(3.40404 6.59981e-14 0)
(3.40404 7.60398e-14 0)
(3.40404 6.87885e-14 0)
(3.40404 -2.60978e-14 0)
(3.40404 -6.04938e-14 0)
(3.40404 8.75818e-15 0)
(3.40404 -3.60896e-14 0)
(3.40404 -2.72114e-14 0)
(3.40404 -1.82432e-14 0)
(3.40404 -1.74897e-14 0)
(3.40404 -5.93869e-14 0)
(3.40404 -1.23488e-14 0)
(3.40404 -2.26472e-14 0)
(3.40404 -3.08087e-14 0)
(3.40404 1.17287e-14 0)
(3.40404 5.94403e-14 0)
(3.40404 7.92103e-14 0)
(3.40404 5.23724e-14 0)
(3.40404 1.7383e-14 0)
(3.40404 -1.81265e-14 0)
(3.40404 9.32494e-15 0)
(3.40404 3.37858e-14 0)
(3.40404 5.73866e-14 0)
(3.40404 9.59699e-14 0)
(3.40404 2.85249e-14 0)
(3.40404 2.47609e-14 0)
(3.40404 2.81949e-14 0)
(3.40404 -3.0942e-14 0)
(3.40404 -3.41726e-14 0)
(3.40404 -3.38892e-14 0)
(3.40404 -1.22734e-13 0)
(3.40404 2.79382e-15 0)
(3.40404 1.73963e-14 0)
(3.40404 3.93868e-14 0)
(3.40404 5.47528e-14 0)
(3.40404 4.02169e-14 0)
(3.40404 -6.91919e-14 0)
(3.40404 -1.06325e-13 0)
(3.40404 -3.73531e-14 0)
(3.40404 5.06054e-14 0)
(3.40404 3.32857e-14 0)
(3.40404 -2.18704e-15 0)
(3.40404 -1.08632e-13 0)
(3.40404 -1.15207e-13 0)
(3.40404 -8.30343e-14 0)
(3.40404 -8.75485e-15 0)
(3.40404 -3.86867e-14 0)
(3.40404 -9.16992e-14 0)
(3.40404 -1.25742e-13 0)
(3.40404 -1.44705e-13 0)
(3.40404 -3.12154e-14 0)
(3.40404 1.42558e-14 0)
(3.40404 3.16455e-14 0)
(3.40404 3.90401e-14 0)
(3.40404 3.12287e-14 0)
(3.40404 6.69816e-14 0)
(3.40404 9.23559e-14 0)
(3.40404 1.35093e-13 0)
(3.40404 1.16253e-13 0)
(3.40404 8.19908e-14 0)
(3.40404 5.69165e-14 0)
(3.40404 8.91421e-14 0)
(3.40404 9.05823e-14 0)
(3.40404 1.41234e-13 0)
(3.40404 1.29806e-13 0)
(3.40404 1.20791e-13 0)
(3.40404 2.10033e-13 0)
(3.40404 1.64168e-13 0)
(3.40404 2.76881e-14 0)
(3.40404 -1.49946e-13 0)
(3.40404 -1.52809e-13 0)
(3.40404 -1.88433e-14 0)
(3.40404 -3.00785e-14 0)
(3.40404 -2.89683e-14 0)
(3.40404 -5.54629e-14 0)
(3.40404 -2.3014e-14 0)
(3.40404 -4.23406e-16 0)
(3.40404 -3.42726e-15 0)
(3.40404 -1.56794e-14 0)
(3.40404 -3.1082e-14 0)
(3.40404 -5.52562e-14 0)
(3.40404 -8.61015e-14 0)
(3.40404 -7.81235e-14 0)
(3.40404 -6.5598e-14 0)
(3.40404 -5.20623e-14 0)
(3.40404 -5.24391e-14 0)
(3.40404 -4.94452e-14 0)
(3.40404 -1.15957e-13 0)
(3.40404 -1.32946e-13 0)
(3.40404 -7.84069e-14 0)
(3.40404 -6.03204e-14 0)
(3.40404 -5.4296e-14 0)
(3.40404 -8.80819e-15 0)
(3.40404 8.8882e-15 0)
(3.40404 8.02272e-14 0)
(3.40404 2.35787e-13 0)
(3.40404 2.36734e-13 0)
(3.40404 2.16261e-13 0)
(3.40404 7.36727e-14 0)
(3.40404 -7.38127e-14 0)
(3.40404 -5.3946e-14 0)
(3.40404 -1.37357e-14 0)
(3.40404 1.08132e-13 0)
(3.40404 2.16781e-13 0)
(3.40404 1.94104e-13 0)
(3.40404 7.19524e-14 0)
(3.40404 4.09137e-14 0)
(3.40404 5.6173e-14 0)
(3.40404 -1.26755e-14 0)
(3.40404 -1.35923e-13 0)
(3.40404 -1.39127e-13 0)
(3.40404 -3.19055e-15 0)
(3.40404 -8.88487e-15 0)
(3.40404 -2.9225e-14 0)
(3.40404 -4.14572e-14 0)
(3.40404 -2.63245e-14 0)
(3.40404 4.16972e-14 0)
(3.40404 7.40595e-14 0)
(3.40404 3.16988e-14 0)
(3.40404 -1.38287e-13 0)
(3.40404 -1.07018e-13 0)
(3.40404 7.26792e-16 0)
(3.40404 4.52311e-14 0)
(3.40404 -3.61529e-14 0)
(3.40404 -8.91421e-14 0)
(3.40404 -7.10423e-14 0)
(3.40404 -8.03839e-14 0)
(3.40404 -7.74267e-14 0)
(3.40404 -3.886e-14 0)
(3.40404 1.46592e-14 0)
(3.40404 -1.39057e-14 0)
(3.40404 -1.43925e-14 0)
(3.40404 -6.75683e-14 0)
(3.40404 2.74514e-14 0)
(3.40404 1.40721e-13 0)
(3.40404 1.65975e-13 0)
(3.40404 2.03518e-13 0)
(3.40404 5.44561e-14 0)
(3.40404 -7.61532e-14 0)
(3.40404 -9.15658e-14 0)
(3.40404 -7.00854e-14 0)
(3.40404 -2.02535e-14 0)
(3.40404 7.19124e-14 0)
(3.40404 4.19272e-14 0)
(3.40404 9.92838e-15 0)
(3.40404 1.31289e-14 0)
(3.40404 -4.68081e-14 0)
(3.40404 -6.96254e-14 0)
(3.40404 -2.36608e-14 0)
(3.40404 5.29425e-14 0)
(3.40404 6.54143e-14 0)
(3.40404 2.81382e-15 0)
(3.40404 1.88933e-14 0)
(3.40404 -6.71783e-15 0)
(3.40404 1.12853e-14 0)
(3.40404 2.37041e-14 0)
(3.40404 4.50578e-14 0)
(3.40404 5.96536e-14 0)
(3.40404 2.01268e-14 0)
(3.40404 -7.36461e-15 0)
(3.40404 3.55295e-14 0)
(3.40404 8.84186e-14 0)
(3.40404 1.11953e-13 0)
(3.40404 1.86862e-13 0)
(3.40404 1.73153e-13 0)
(3.40404 1.23165e-13 0)
(3.40404 1.64728e-14 0)
(3.40404 -1.53026e-15 0)
(3.40404 -3.05986e-14 0)
(3.40404 -2.8725e-14 0)
(3.40404 6.21907e-14 0)
(3.40404 5.89835e-14 0)
(3.40404 3.37192e-14 0)
(3.40404 3.40292e-14 0)
(3.40404 3.4876e-14 0)
(3.40404 -3.0902e-14 0)
(3.40404 -2.68013e-14 0)
(3.40404 1.44692e-14 0)
(3.40404 3.33558e-14 0)
(3.40404 3.78732e-14 0)
(3.40404 4.78683e-14 0)
(3.40404 4.79916e-14 0)
(3.40404 -4.79183e-14 0)
(3.40404 -6.40444e-14 0)
(3.40404 -8.75351e-14 0)
(3.40404 -2.40008e-14 0)
(3.40404 5.31158e-14 0)
(3.40404 5.03754e-14 0)
(3.40404 8.05172e-14 0)
(3.40404 1.41398e-13 0)
(3.40404 1.68171e-13 0)
(3.40404 2.22038e-15 0)
(3.40404 -3.91301e-14 0)
(3.40404 -3.92001e-14 0)
(3.40404 -2.81082e-14 0)
(3.40404 -2.18038e-15 0)
(3.40404 -7.52463e-15 0)
(3.40404 -9.0449e-15 0)
(3.40404 3.09187e-14 0)
(3.40404 1.1704e-13 0)
(3.40404 1.3357e-13 0)
(3.40404 1.01261e-13 0)
(3.40404 1.24582e-13 0)
(3.40404 2.20425e-13 0)
(3.40404 2.74201e-13 0)
(3.40404 2.75434e-13 0)
(3.40404 1.73697e-13 0)
(3.40404 1.28135e-13 0)
(3.40404 2.85183e-14 0)
(3.40404 9.93272e-14 0)
(3.40404 1.65005e-13 0)
(3.40404 1.69103e-13 0)
(3.40404 1.32883e-13 0)
(3.40404 1.7493e-14 0)
(3.40404 -2.46209e-14 0)
(3.40404 -1.16894e-13 0)
(3.40404 -1.96821e-13 0)
(3.40404 -1.60658e-13 0)
(3.40404 -1.07405e-13 0)
(3.40404 -2.68146e-14 0)
(3.40404 -8.20975e-14 0)
(3.40404 -1.45775e-13 0)
(3.40404 -2.39458e-13 0)
(3.40404 -2.46052e-13 0)
(3.40404 -2.07959e-13 0)
(3.40404 -1.38241e-13 0)
(3.40404 -7.64499e-14 0)
(3.40404 2.96818e-14 0)
(3.40404 3.69297e-14 0)
(3.40404 2.61478e-14 0)
(3.40404 5.04392e-14 0)
(3.40404 1.23888e-14 0)
(3.40404 -9.4683e-15 0)
(3.40404 -1.32923e-14 0)
(3.40404 -4.23573e-14 0)
(3.40404 -3.10987e-14 0)
(3.40404 -2.08703e-14 0)
(3.40404 -3.67263e-14 0)
(3.40404 5.44761e-15 0)
(3.40404 3.13354e-14 0)
(3.40404 1.03818e-14 0)
(3.40404 4.36942e-14 0)
(3.40404 1.61361e-14 0)
(3.40404 3.90534e-14 0)
(3.40404 4.95219e-14 0)
(3.40404 8.0884e-14 0)
(3.40404 3.01912e-13 0)
(3.40404 2.22462e-13 0)
(3.40404 1.9463e-13 0)
(3.40404 2.32147e-13 0)
(3.40404 1.68943e-13 0)
(3.40404 1.24868e-13 0)
(3.40404 1.31613e-13 0)
(3.40404 1.32856e-13 0)
(3.40404 8.00305e-14 0)
(3.40404 3.82633e-14 0)
(3.40404 -1.93733e-14 0)
(3.40404 -1.45378e-13 0)
(3.40404 -1.5647e-13 0)
(3.40404 -1.64398e-13 0)
(3.40404 -1.52553e-13 0)
(3.40404 -1.78534e-13 0)
(3.40404 -1.85682e-13 0)
(3.40404 -3.17822e-13 0)
(3.40404 -3.22259e-13 0)
(3.40404 -2.94891e-13 0)
(3.40404 -2.20155e-13 0)
(3.40404 -5.48428e-14 0)
(3.40404 2.98418e-14 0)
(3.40404 2.35041e-14 0)
(3.40404 -9.2731e-15 0)
(3.40404 -5.06087e-15 0)
(3.40404 2.82215e-14 0)
(3.40404 5.17923e-14 0)
(3.40404 3.56995e-14 0)
(3.40404 1.05585e-14 0)
(3.40404 1.28089e-14 0)
(3.40404 1.7483e-14 0)
(3.40404 1.84065e-14 0)
(3.40404 -6.39677e-14 0)
(3.40404 -9.74368e-14 0)
(3.40404 -1.21288e-13 0)
(3.40404 -1.28329e-13 0)
(3.40404 -1.00067e-13 0)
(3.40404 -8.10473e-14 0)
(3.40404 -1.57394e-14 0)
(3.40404 2.93017e-14 0)
(3.40404 8.89187e-14 0)
(3.40404 8.63216e-14 0)
(3.40404 5.41794e-14 0)
(3.40404 3.11054e-15 0)
(3.40404 3.58762e-14 0)
(3.40404 1.19947e-13 0)
(3.40404 1.15153e-13 0)
(3.40404 7.95537e-14 0)
(3.40404 5.56529e-14 0)
(3.40404 1.43625e-14 0)
(3.40404 1.20621e-14 0)
(3.40404 -1.03171e-13 0)
(3.40404 -1.60104e-13 0)
(3.40404 -1.52536e-13 0)
(3.40404 -1.49286e-13 0)
(3.40404 -2.31783e-13 0)
(3.40404 -2.23159e-13 0)
(3.40404 -2.11633e-13 0)
(3.40404 -1.73407e-13 0)
(3.40404 -7.12523e-14 0)
(3.40404 6.13439e-16 0)
(3.40404 4.46744e-14 0)
(3.40404 4.09804e-14 0)
(3.40404 -4.93957e-14 0)
(3.40404 -1.14386e-14 0)
(3.40404 4.6608e-15 0)
(3.40404 8.23109e-14 0)
(3.40404 1.11643e-13 0)
(3.40404 5.03887e-14 0)
(3.40404 3.56828e-14 0)
(3.40404 2.67346e-14 0)
(3.40404 -3.27757e-14 0)
(3.40404 -1.18771e-13 0)
(3.40404 -1.50896e-13 0)
(3.40404 -1.23961e-13 0)
(3.40404 -4.28841e-14 0)
(3.40404 -7.83669e-14 0)
(3.40404 -9.00822e-14 0)
(3.40404 -1.02971e-13 0)
(3.40404 -1.53677e-13 0)
(3.40404 -1.38404e-13 0)
(3.40404 -6.43444e-14 0)
(3.40404 -7.71533e-14 0)
(3.40404 -3.21622e-14 0)
(3.40404 -2.81715e-15 0)
(3.40404 3.72298e-14 0)
(3.40404 4.02436e-14 0)
(3.40404 -1.27655e-14 0)
(3.40404 -1.13993e-13 0)
(3.40404 -7.34327e-14 0)
(3.40404 -2.16437e-14 0)
(3.40404 -1.28742e-13 0)
(3.40404 -1.60631e-13 0)
(3.40404 -1.63348e-13 0)
(3.40404 -1.01374e-13 0)
(3.40404 -6.41544e-14 0)
(3.40404 -1.1582e-14 0)
(3.40404 7.30359e-14 0)
(3.40404 1.57531e-13 0)
(3.40404 1.43298e-13 0)
(3.40404 5.77066e-14 0)
(3.40404 4.08237e-14 0)
(3.40404 -5.06321e-14 0)
(3.40404 -9.03468e-14 0)
(3.40404 2.44676e-14 0)
(3.40404 5.11088e-14 0)
(3.40404 4.79916e-14 0)
(3.40404 8.08706e-14 0)
(3.40404 7.22758e-14 0)
(3.40404 2.78015e-14 0)
(3.40404 -6.56213e-14 0)
(3.40404 -1.25188e-13 0)
(3.40404 -1.57924e-13 0)
(3.40404 -1.22101e-13 0)
(3.40404 -9.4743e-14 0)
(3.40404 -1.32906e-13 0)
(3.40404 -1.64438e-13 0)
(3.40404 -1.81078e-13 0)
(3.40404 -1.60988e-13 0)
(3.40404 -1.53413e-13 0)
(3.40404 -8.26709e-14 0)
(3.40404 -1.85399e-14 0)
(3.40404 -6.40044e-14 0)
(3.40404 -9.4653e-14 0)
(3.40404 -1.46412e-13 0)
(3.40404 -1.87799e-13 0)
(3.40404 -1.65259e-13 0)
(3.40404 -9.30227e-14 0)
(3.40404 -6.59947e-14 0)
(3.40404 -1.36284e-13 0)
(3.40404 -1.58504e-13 0)
(3.40404 -2.07613e-13 0)
(3.40404 -2.81242e-13 0)
(3.40404 -2.17674e-13 0)
(3.40404 -1.78908e-13 0)
(3.40404 -1.22595e-13 0)
(3.40404 -1.01594e-13 0)
(3.40404 -6.19407e-14 0)
(3.40404 -4.61613e-14 0)
(3.40404 -9.27427e-14 0)
(3.40404 -9.42296e-14 0)
(3.40404 -1.1739e-13 0)
(3.40404 -1.13296e-13 0)
(3.40404 -8.35218e-14 0)
(3.40404 1.58661e-14 0)
(3.40404 3.88467e-14 0)
(3.40404 6.5678e-15 0)
(3.40404 4.60079e-15 0)
(3.40404 2.74414e-14 0)
(3.40404 -4.2414e-14 0)
(3.40404 -5.12822e-14 0)
(3.40404 6.53446e-16 0)
(3.40404 -2.16237e-14 0)
(3.40404 -4.24007e-14 0)
(3.40404 -1.34957e-13 0)
(3.40404 -1.63048e-13 0)
(3.40404 -1.05305e-13 0)
(3.40404 -1.04821e-13 0)
(3.40404 -1.43425e-13 0)
(3.40404 -8.65249e-14 0)
(3.40404 -4.23506e-14 0)
(3.40404 -7.90937e-14 0)
(3.40404 -1.10742e-13 0)
(3.40404 -1.88426e-13 0)
(3.40404 -1.96371e-13 0)
(3.40404 -1.72176e-13 0)
(3.40404 -1.31046e-13 0)
(3.40404 -4.81683e-14 0)
(3.40404 2.42809e-14 0)
(3.40404 6.40111e-15 0)
(3.40404 -9.0569e-14 0)
(3.40404 -8.47446e-14 0)
(3.40404 -1.89413e-13 0)
(3.40404 -2.5104e-13 0)
(3.40404 -2.3248e-13 0)
(3.40404 -1.80234e-13 0)
(3.40404 -1.19631e-13 0)
(3.40404 -1.56254e-13 0)
(3.40404 -2.06582e-13 0)
(3.40404 -2.55061e-13 0)
(3.40404 -2.77395e-13 0)
(3.40404 -3.58245e-13 0)
(3.40404 -2.57021e-13 0)
(3.40404 -1.62346e-13 0)
(3.40404 -1.18187e-14 0)
(3.40404 -3.57228e-14 0)
(3.40404 -6.70149e-14 0)
(3.40404 -7.3636e-14 0)
(3.40404 -5.48495e-14 0)
(3.40404 -8.13107e-14 0)
(3.40404 -8.18175e-14 0)
(3.40404 -4.79116e-14 0)
(3.40404 6.13473e-14 0)
(3.40404 4.76949e-14 0)
(3.40404 -3.20422e-14 0)
(3.40404 -8.14607e-14 0)
(3.40404 -8.62116e-14 0)
(3.40404 -1.1713e-13 0)
(3.40404 -6.40277e-14 0)
(3.40404 -1.367e-13 0)
(3.40404 -1.82472e-13 0)
(3.40404 -2.04035e-13 0)
(3.40404 -1.81631e-13 0)
(3.40404 -2.05922e-13 0)
(3.40404 -2.56821e-13 0)
(3.40404 -2.36644e-13 0)
(3.40404 -1.05041e-13 0)
(3.40404 7.30193e-14 0)
(3.40404 1.51866e-13 0)
(3.40404 1.3317e-13 0)
(3.40404 6.52013e-14 0)
(3.40404 2.5271e-14 0)
(3.40404 2.9185e-14 0)
(3.40404 -6.86785e-14 0)
(3.40404 -1.23218e-13 0)
(3.40404 -1.11816e-13 0)