/*--------------------------------*- C++ -*----------------------------------*\
| =========                 |                                                 |
| \\      /  F ield         | OpenFOAM: The Open Source CFD Toolbox           |
|  \\    /   O peration     | Version:  2206                                  |
|   \\  /    A nd           | Website:  www.openfoam.com                      |
|    \\/     M anipulation  |                                                 |
\*---------------------------------------------------------------------------*/
FoamFile
{
    version     2.0;
    format      ascii;
    arch        "LSB;label=32;scalar=64";
    class       volScalarField;
    location    "0.1";
    object      rho;
}
// * * * * * * * * * * * * * * * * * * * * * * * * * * * * * * * * * * * * * //

dimensions      [1 -3 0 0 0 0 0];

internalField   nonuniform List<scalar> 
4800
(
1.40001
1.40001
1.40001
1.40001
1.40001
1.40001
1.40001
1.40001
1.40001
1.40001
1.40001
1.40001
1.40001
1.40001
1.40001
1.40001
1.40001
1.40001
1.40001
1.40001
1.40001
1.40001
1.40001
1.40001
1.40001
1.40001
1.40001
1.40001
1.40001
1.40001
1.40001
1.40001
1.40001
1.40001
1.40001
1.40001
1.40001
1.40001
1.40001
1.40001
1.40001
1.40001
1.40001
1.40001
1.40001
1.40001
1.40001
1.40001
1.40001
1.40001
1.40001
1.40001
1.40001
1.40001
1.40001
1.40001
1.40001
1.40001
1.40001
1.40001
1.40001
1.40001
1.40001
1.40001
1.40001
1.40001
1.40001
1.40001
1.40001
1.40001
1.40001
1.40001
1.40001
1.40001
1.40001
1.40001
1.40001
1.40001
1.40001
1.40001
1.40001
1.40001
1.40001
1.40001
1.40001
1.40001
1.40001
1.40001
1.40001
1.40001
1.40001
1.40001
1.40001
1.40001
1.40001
1.40001
1.40001
1.40001
1.40001
1.40001
1.40001
1.40001
1.40001
1.40001
1.40001
1.40001
1.40001
1.40001
1.40001
1.40001
1.40001
1.40001
1.40001
1.40001
1.40001
1.40001
1.40001
1.40001
1.40001
1.40001
1.40001
1.40001
1.40001
1.40001
1.40001
1.40001
1.40001
1.40001
1.40001
1.40001
1.40001
1.40001
1.40001
1.40001
1.40001
1.40001
1.40001
1.40001
1.40001
1.40001
1.40001
1.40001
1.40001
1.40001
1.40001
1.40001
1.40001
1.40001
1.40001
1.40001
1.40001
1.40001
1.40001
1.40001
1.40001
1.40001
1.40001
1.40001
1.40001
1.40001
1.40001
1.40001
1.40001
1.40001
1.40001
1.40001
1.40001
1.40001
1.40001
1.40001
1.40001
1.40001
1.40001
1.40001
1.40001
1.40001
1.40001
1.40001
1.40001
1.40001
1.40001
1.40001
1.40001
1.40001
1.40001
1.40001
1.40001
1.40001
1.40001
1.40001
1.40001
1.40001
1.40001
1.40001
1.40001
1.40001
1.40001
1.40001
1.40001
1.40001
1.40001
1.40001
1.40001
1.40001
1.40001
1.40001
1.40001
1.40001
1.40001
1.40001
1.40001
1.40001
1.40001
1.40001
1.40001
1.40001
1.40001
1.40001
1.40001
1.40001
1.40001
1.40001
1.40001
1.40001
1.40001
1.40001
1.40001
1.40001
1.40001
1.40001
1.40001
1.40001
1.40001
1.40001
1.40001
1.40001
1.40001
1.40001
1.40001
1.40001
1.40001
1.40001
1.40001
1.40001
1.40001
1.40001
1.40001
1.40001
1.40001
1.40001
1.40001
1.40001
1.40001
1.40001
1.40001
1.40001
1.40001
1.40001
1.40001
1.40001
1.40001
1.40001
1.40001
1.40001
1.40001
1.40001
1.40001
1.40001
1.40001
1.40001
1.40001
1.40001
1.40001
1.40001
1.40001
1.40001
1.40001
1.40001
1.40001
1.40001
1.40001
1.40001
1.40001
1.40001
1.40001
1.40001
1.40001
1.40001
1.40001
1.40001
1.40001
1.40001
1.40001
1.40001
1.40001
1.40001
1.40001
1.40001
1.40001
1.40001
1.40001
1.40001
1.40001
1.40001
1.40001
1.40001
1.40001
1.40001
1.40001
1.40001
1.40001
1.40001
1.40001
1.40001
1.40001
1.40001
1.40001
1.40001
1.40001
1.40001
1.40001
1.40001
1.40001
1.40001
1.40001
1.40001
1.40001
1.40001
1.40001
1.40001
1.40001
1.40001
1.40001
1.40001
1.40001
1.40001
1.40001
1.40001
1.40001
1.40001
1.40001
1.40001
1.40001
1.40001
1.40001
1.40001
1.40001
1.40001
1.40001
1.40001
1.40001
1.40001
1.40001
1.40001
1.40001
1.40001
1.40001
1.40001
1.40001
1.40001
1.40001
1.40001
1.40001
1.40001
1.40001
1.40001
1.40001
1.40001
1.40001
1.40001
1.40001
1.40001
1.40001
1.40001
1.40001
1.40001
1.40001
1.40001
1.40001
1.40001
1.40001
1.40001
1.40001
1.40001
1.40001
1.40001
1.40001
1.40001
1.40001
1.40001
1.40001
1.40001
1.40001
1.40001
1.40001
1.40001
1.40001
1.40001
1.40001
1.40001
1.40001
1.40001
1.40001
1.40001
1.40001
1.40001
1.40001
1.40001
1.40001
1.40001
1.40001
1.40001
1.40001
1.40001
1.40001
1.40001
1.40001
1.40001
1.40001
1.40001
1.40001
1.40001
1.40001
1.40001
1.40001
1.40001
1.40001
1.40001
1.40001
1.40001
1.40001
1.40001
1.40001
1.40001
1.40001
1.40001
1.40001
1.40001
1.40001
1.40001
1.40001
1.40001
1.40001
1.40001
1.40001
1.40001
1.40001
1.40001
1.40001
1.40001
1.40001
1.40001
1.40001
1.40001
1.40001
1.40001
1.40001
1.40001
1.40001
1.40001
1.40001
1.40001
1.40001
1.40001
1.40001
1.40001
1.40001
1.40001
1.40001
1.40001
1.40001
1.40001
1.40001
1.40001
1.40001
1.40001
1.40001
1.40001
1.40001
1.40001
1.40001
1.40001
1.40001
1.40001
1.40001
1.40001
1.40001
1.40001
1.40001
1.40001
1.40001
1.40001
1.40001
1.40001
1.40001
1.40001
1.40001
1.40001
1.40001
1.40001
1.40001
1.40001
1.40001
1.40001
1.40001
1.40001
1.40001
1.40001
1.40001
1.40001
1.40001
1.40001
1.40001
1.40001
1.40001
1.40001
1.40001
1.40001
1.40001
1.40001
1.40001
1.40001
1.40001
1.40001
1.40001
1.40001
1.40001
1.40001
1.40001
1.40001
1.40001
1.40001
1.40001
1.40001
1.40001
1.40001
1.40001
1.40001
1.40001
1.40001
1.40001
1.40001
1.40001
1.40001
1.40001
1.40001
1.40001
1.40001
1.40001
1.40001
1.40001
1.40001
1.40001
1.40001
1.40001
1.40001
1.40001
1.40001
1.40001
1.40001
1.40001
1.40001
1.40001
1.40001
1.40001
1.40001
1.40001
1.40001
1.40001
1.40001
1.40001
1.40001
1.40001
1.40001
1.40001
1.40001
1.40001
1.40001
1.40001
1.40001
1.40001
1.40001
1.40001
1.40001
1.40001
1.40001
1.40001
1.40001
1.40001
1.40001
1.40001
1.40001
1.40001
1.40001
1.40001
1.40001
1.40001
1.40001
1.40001
1.40001
1.40001
1.40001
1.40001
1.40001
1.40001
1.40001
1.40001
1.40001
1.40001
1.40001
1.40001
1.40001
1.40001
1.40001
1.40001
1.40001
1.40001
1.40001
1.40001
1.40001
1.40001
1.40001
1.40001
1.40001
1.40001
1.40001
1.40001
1.40001
1.40001
1.40001
1.40001
1.40001
1.40001
1.40001
1.40001
1.40001
1.40001
1.40001
1.40001
1.40001
1.40001
1.40001
1.40001
1.40001
1.40001
1.40001
1.40001
1.40001
1.40001
1.40001
1.40001
1.40001
1.40001
1.40001
1.40001
1.40001
1.40001
1.40001
1.40001
1.40001
1.40001
1.40001
1.40001
1.40001
1.40001
1.40001
1.40001
1.40001
1.40001
1.40001
1.40001
1.40001
1.40001
1.40001
1.40001
1.40001
1.40001
1.40001
1.40001
1.40001
1.40001
1.40001
1.40001
1.40001
1.40001
1.40001
1.40001
1.40001
1.40001
1.40001
1.40001
1.40001
1.40001
1.40001
1.40001
1.40001
1.40001
1.40001
1.40001
1.40001
1.40001
1.40001
1.40001
1.40001
1.40001
1.40001
1.40001
1.40001
1.40001
1.40001
1.40001
1.40001
1.40001
1.40001
1.40001
1.40001
1.40001
1.40001
1.40001
1.40001
1.40001
1.40001
1.40001
1.40001
1.40001
1.40001
1.40001
1.40001
1.40001
1.40001
1.40001
1.40001
1.40001
1.40001
1.40001
1.40001
1.40001
1.40001
1.40001
1.40001
1.40001
1.40001
1.40001
1.40001
1.40001
1.40001
1.40001
1.40001
1.40001
1.40001
1.40001
1.40001
1.40001
1.40001
1.40001
1.40001
1.40001
1.40001
1.40001
1.40001
1.40001
1.40001
1.40001
1.40001
1.40001
1.40001
1.40001
1.40001
1.40001
1.40001
1.40001
1.40001
1.40001
1.40001
1.40001
1.40001
1.40001
1.40001
1.40001
1.40001
1.40001
1.40001
1.40001
1.40001
1.40001
1.40001
1.40001
1.40001
1.40001
1.40001
1.40001
1.40001
1.40001
1.40001
1.40001
1.40001
1.40001
1.40001
1.40001
1.40001
1.40001
1.40001
1.40001
1.40001
1.40001
1.40001
1.40001
1.40001
1.40001
1.40001
1.40001
1.40001
1.40001
1.40001
1.40001
1.40001
1.40001
1.40001
1.40001
1.40001
1.40001
1.40001
1.40001
1.40001
1.40001
1.40001
1.40001
1.40001
1.40001
1.40001
1.40001
1.40001
1.40001
1.40001
1.40001
1.40001
1.40001
1.40001
1.40001
1.40001
1.40001
1.40001
1.40001
1.40001
1.40001
1.40001
1.40001
1.40001
1.40001
1.40001
1.40001
1.40001
1.40001
1.40001
1.40001
1.40001
1.40001
1.40001
1.40001
1.40001
1.40001
1.40001
1.40001
1.40001
1.40001
1.40001
1.40001
1.40001
1.40001
1.40001
1.40001
1.40001
1.40001
1.40001
1.40001
1.40001
1.40001
1.40001
1.40001
1.40001
1.40001
1.40001
1.40001
1.40001
1.40001
1.40001
1.40001
1.40001
1.40001
1.40001
1.40001
1.40001
1.40001
1.40001
1.40001
1.40001
1.40001
1.40001
1.40001
1.40001
1.40001
1.40001
1.40001
1.40001
1.40001
1.40001
1.40001
1.40001
1.40001
1.40001
1.40001
1.40001
1.40001
1.40001
1.40001
1.40001
1.40001
1.40001
1.40001
1.40001
1.40001
1.40001
1.40001
1.40001
1.40001
1.40001
1.40001
1.40001
1.40001
1.40001
1.40001
1.40001
1.40001
1.40001
1.40001
1.40001
1.40001
1.40001
1.40001
1.40001
1.40001
1.40001
1.40001
1.40001
1.40001
1.40001
1.40001
1.40001
1.40001
1.40001
1.40001
1.40001
1.40001
1.40001
1.40001
1.40001
1.40001
1.40001
1.40001
1.40001
1.40001
1.40001
1.40001
1.40001
1.40001
1.40001
1.40001
1.40001
1.40001
1.40001
1.40001
1.40001
1.40001
1.40001
1.40001
1.40001
1.40001
1.40001
1.40001
1.40001
1.40001
1.40001
1.40001
1.40001
1.40001
1.40001
1.40001
1.40001
1.40001
1.40001
1.40001
1.40001
1.40001
1.40001
1.40001
1.40001
1.40001
1.40001
1.40001
1.40001
1.40001
1.40001
1.40001
1.40001
1.40001
1.40001
1.40001
1.40001
1.40001
1.40001
1.40001
1.40001
1.40001
1.40001
1.40001
1.40001
1.40001
1.40001
1.40001
1.40001
1.40001
1.40001
1.40001
1.40001
1.40001
1.40001
1.40001
1.40001
1.40001
1.40001
1.40001
1.40001
1.40001
1.40001
1.40001
1.40001
1.40001
1.40001
1.40001
1.40001
1.40001
1.40001
1.40001
1.40001
1.40001
1.40001
1.40001
1.40001
1.40001
1.40001
1.40001
1.40001
1.40001
1.40001
1.40001
1.40001
1.40001
1.40001
1.40001
1.40001
1.40001
1.40001
1.40001
1.40001
1.40001
1.40001
1.40001
1.40001
1.40001
1.40001
1.40001
1.40001
1.40001
1.40001
1.40001
1.40001
1.40001
1.40001
1.40001
1.40001
1.40001
1.40001
1.40001
1.40001
1.40001
1.40001
1.40001
1.40001
1.40001
1.40001
1.40001
1.40001
1.40001
1.40001
1.40001
1.40001
1.40001
1.40001
1.40001
1.40001
1.40001
1.40001
1.40001
1.40001
1.40001
1.40001
1.40001
1.40001
1.40001
1.40001
1.40001
1.40001
1.40001
1.40001
1.40001
1.40001
1.40001
1.40001
1.40001
1.40001
1.40001
1.40001
1.40001
1.40001
1.40001
1.40001
1.40001
1.40001
1.40001
1.40001
1.40001
1.40001
1.40001
1.40001
1.40001
1.40001
1.40001
1.40001
1.40001
1.40001
1.40001
1.40001
1.40001
1.40001
1.40001
1.40001
1.40001
1.40001
1.40001
1.40001
1.40001
1.40001
1.40001
1.40001
1.40001
1.40001
1.40001
1.40001
1.40001
1.40001
1.40001
1.40001
1.40001
1.40001
1.40001
1.40001
1.40001
1.40001
1.40001
1.40001
1.40001
1.40001
1.40001
1.40001
1.40001
1.40001
1.40001
1.40001
1.40001
1.40001
1.40001
1.40001
1.40001
1.40001
1.40001
1.40001
1.40001
1.40001
1.40001
1.40001
1.40001
1.40001
1.40001
1.40001
1.40001
1.40001
1.40001
1.40001
1.40001
1.40001
1.40001
1.40001
1.40001
1.40001
1.40001
1.40001
1.40001
1.40001
1.40001
1.40001
1.40001
1.40001
1.40001
1.40001
1.40001
1.40001
1.40001
1.40001
1.40001
1.40001
1.40001
1.40001
1.40001
1.40001
1.40001
1.40001
1.40001
1.40001
1.40001
1.40001
1.40001
1.40001
1.40001
1.40001
1.40001
1.40001
1.40001
1.40001
1.40001
1.40001
1.40001
1.40001
1.40001
1.40001
1.40001
1.40001
1.40001
1.40001
1.40001
1.40001
1.40001
1.40001
1.40001
1.40001
1.40001
1.40001
1.40001
1.40001
1.40001
1.40001
1.40001
1.40001
1.40001
1.40001
1.40001
1.40001
1.40001
1.40001
1.40001
1.40001
1.40001
1.40001
1.40001
1.40001
1.40001
1.40001
1.40001
1.40001
1.40001
1.40001
1.40001
1.40001
1.40001
1.40001
1.40001
1.40001
1.40001
1.40001
1.40001
1.40001
1.40001
1.40001
1.40001
1.40001
1.40001
1.40001
1.40001
1.40001
1.40001
1.40001
1.40001
1.40001
1.40001
1.40001
1.40001
1.40001
1.40001
1.40001
1.40001
1.40001
1.40001
1.40001
1.40001
1.40001
1.40001
1.40001
1.40001
1.40001
1.40001
1.40001
1.40001
1.40001
1.40001
1.40001
1.40001
1.40001
1.40001
1.40001
1.40001
1.40001
1.40001
1.40001
1.40001
1.40001
1.40001
1.40001
1.40001
1.40001
1.40001
1.40001
1.40001
1.40001
1.40001
1.40001
1.40001
1.40001
1.40001
1.40001
1.40001
1.40001
1.40001
1.40001
1.40001
1.40001
1.40001
1.40001
1.40001
1.40001
1.40001
1.40001
1.40001
1.40001
1.40001
1.40001
1.40001
1.40001
1.40001
1.40001
1.40001
1.40001
1.40001
1.40001
1.40001
1.40001
1.40001
1.40001
1.40001
1.40001
1.40001
1.40001
1.40001
1.40001
1.40001
1.40001
1.40001
1.40001
1.40001
1.40001
1.40001
1.40001
1.40001
1.40001
1.40001
1.40001
1.40001
1.40001
1.40001
1.40001
1.40001
1.40001
1.40001
1.40001
1.40001
1.40001
1.40001
1.40001
1.40001
1.40001
1.40001
1.40001
1.40001
1.40001
1.40001
1.40001
1.40001
1.40001
1.40001
1.40001
1.40001
1.40001
1.40001
1.40001
1.40001
1.40001
1.40001
1.40001
1.40001
1.40001
1.40001
1.40001
1.40001
1.40001
1.40001
1.40001
1.40001
1.40001
1.40001
1.40001
1.40001
1.40001
1.40001
1.40001
1.40001
1.40001
1.40001
1.40001
1.40001
1.40001
1.40001
1.40001
1.40001
1.40001
1.40001
1.40001
1.40001
1.40001
1.40001
1.40001
1.40001
1.40001
1.40001
1.40001
1.40001
1.40001
1.40001
1.40001
1.40001
1.40001
1.40001
1.40001
1.40001
1.40001
1.40001
1.40001
1.40001
1.40001
1.40001
1.40001
1.40001
1.40001
1.40001
1.40001
1.40001
1.40001
1.40001
1.40001
1.40001
1.40001
1.40001
1.40001
1.40001
1.40001
1.40001
1.40001
1.40001
1.40001
1.40001
1.40001
1.40001
1.40001
1.40001
1.40001
1.40001
1.40001
1.40001
1.40001
1.40001
1.40001
1.40001
1.40001
1.40001
1.40001
1.40001
1.40001
1.40001
1.40001
1.40001
1.40001
1.40001
1.40001
1.40001
1.40001
1.40001
1.40001
1.40001
1.40001
1.40001
1.40001
1.40001
1.40001
1.40001
1.40001
1.40001
1.40001
1.40001
1.40001
1.40001
1.40001
1.40001
1.40001
1.40001
1.40001
1.40001
1.40001
1.40001
1.40001
1.40001
1.40001
1.40001
1.40001
1.40001
1.40001
1.40001
1.40001
1.40001
1.40001
1.40001
1.40001
1.40001
1.40001
1.40001
1.40001
1.40001
1.40001
1.40001
1.40001
1.40001
1.40001
1.40001
1.40001
1.40001
1.40001
1.40001
1.40001
1.40001
1.40001
1.40001
1.40001
1.40001
1.40001
1.40001
1.40001
1.40001
1.40001
1.40001
1.40001
1.40001
1.40001
1.40001
1.40001
1.40001
1.40001
1.40001
1.40001
1.40001
1.40001
1.40001
1.40001
1.40001
1.40001
1.65287
2.01965
2.4203
2.84568
3.23615
3.58683
3.86887
4.12582
4.50228
4.64787
4.66122
4.77751
4.78778
4.72509
4.5515
4.27519
3.98548
3.81989
3.74386
3.63043
3.53011
3.52971
3.54253
3.5597
3.58055
3.60028
3.64054
3.68638
3.71273
3.7113
3.69875
3.68257
3.68282
3.69302
3.69755
3.69736
3.69789
3.69995
3.70344
3.70646
3.70842
3.71061
3.71291
3.71524
3.7161
3.71565
3.71384
3.70496
3.68708
3.67432
3.67346
3.67702
3.68517
3.69683
3.70816
3.71684
3.7236
3.72713
3.72788
3.72635
3.72304
3.71891
3.71154
3.70302
3.69314
3.68247
3.67542
3.67485
3.67903
3.69
3.70828
3.73176
3.74931
3.755
3.75292
3.74321
3.72658
3.70463
3.67578
3.63773
1.39966
1.40249
1.40839
1.42999
1.50178
1.62799
1.82472
2.03772
2.2834
2.6586
2.94251
3.25102
3.54808
3.72288
3.79599
3.81254
3.93769
3.96609
3.94211
3.8877
3.79188
3.76083
3.73374
3.69883
3.66898
3.62209
3.61737
3.62958
3.64848
3.65515
3.65507
3.65755
3.66872
3.68286
3.69007
3.69377
3.69429
3.68934
3.67962
3.6762
3.67765
3.68185
3.6907
3.7028
3.70873
3.7094
3.70795
3.70212
3.69611
3.69027
3.68742
3.68892
3.69107
3.69284
3.69295
3.69136
3.69119
3.69365
3.69761
3.70287
3.70815
3.71101
3.71248
3.71242
3.71129
3.70759
3.70194
3.69794
3.6984
3.70189
3.70555
3.70666
3.70707
3.70876
3.70825
3.70637
3.70225
3.6899
3.6769
3.65853
1.40001
1.40001
1.40001
1.40001
1.4
1.40001
1.39959
1.40092
1.4095
1.45819
1.57738
1.74765
2.10572
2.5441
3.05251
3.52081
3.83401
4.07418
4.05956
4.02787
3.99475
3.94693
3.88723
3.8048
3.68885
3.59298
3.57575
3.58997
3.6106
3.61327
3.61305
3.617
3.62925
3.64728
3.66472
3.67488
3.67662
3.67411
3.66428
3.65437
3.65263
3.65191
3.65436
3.6636
3.67461
3.68126
3.68493
3.68715
3.68702
3.68671
3.68775
3.69005
3.69107
3.6889
3.68148
3.67381
3.66573
3.65949
3.65914
3.66177
3.67089
3.68762
3.70333
3.71059
3.71258
3.71272
3.71207
3.71186
3.71042
3.70818
3.70434
3.69569
3.68344
3.67212
3.66536
3.66347
3.66591
3.67154
3.67618
3.66821
1.40001
1.40001
1.40001
1.40001
1.40001
1.40001
1.40001
1.40001
1.40001
1.4
1.4
1.39942
1.40442
1.43748
1.54689
1.86633
2.29458
2.90249
3.28667
3.52268
3.73739
3.75107
3.76391
3.78141
3.76842
3.7257
3.68648
3.67372
3.65267
3.6234
3.56661
3.54311
3.54481
3.5587
3.58911
3.61798
3.63295
3.63758
3.63858
3.63842
3.63651
3.62983
3.62414
3.62395
3.62817
3.6325
3.63698
3.64415
3.65576
3.6681
3.67492
3.67736
3.67723
3.67493
3.67195
3.66512
3.6504
3.63971
3.63764
3.63882
3.64195
3.65047
3.66504
3.68078
3.69278
3.70083
3.70511
3.70592
3.70565
3.70307
3.69419
3.67805
3.66306
3.65253
3.64769
3.64638
3.64808
3.66185
3.67773
3.66662
1.40001
1.40001
1.40001
1.40001
1.40001
1.40001
1.40001
1.40001
1.40001
1.40001
1.40001
1.40001
1.4
1.40001
1.39978
1.40045
1.4192
1.51503
1.83063
2.20319
2.70594
3.11723
3.45276
3.73774
3.78056
3.80625
3.8047
3.78492
3.7437
3.64728
3.54612
3.5167
3.51785
3.53165
3.55532
3.57109
3.58292
3.5935
3.60068
3.60702
3.61224
3.61275
3.61059
3.6121
3.61374
3.61355
3.6111
3.6118
3.6152
3.62118
3.62908
3.64016
3.65185
3.65779
3.65818
3.65476
3.64998
3.64195
3.63481
3.63271
3.63353
3.63636
3.63992
3.64299
3.64735
3.65363
3.66197
3.67258
3.68071
3.68158
3.67804
3.67357
3.66686
3.6566
3.64513
3.64078
3.64252
3.64664
3.65398
3.64519
1.40001
1.40001
1.40001
1.40001
1.40001
1.40001
1.40001
1.40001
1.40001
1.40001
1.40001
1.40001
1.40001
1.40001
1.40001
1.40001
1.40001
1.39983
1.40069
1.41334
1.48336
1.75763
2.13288
2.64389
3.03772
3.35498
3.6208
3.65061
3.65266
3.66227
3.62596
3.59014
3.58557
3.5896
3.58449
3.57556
3.56053
3.55231
3.55359
3.55972
3.57479
3.59072
3.59853
3.60992
3.61644
3.61399
3.60882
3.60392
3.59553
3.59055
3.59015
3.5948
3.60866
3.6259
3.63714
3.64261
3.64406
3.6427
3.64104
3.6407
3.63926
3.63563
3.63206
3.62679
3.61903
3.61543
3.61592
3.61995
3.63159
3.64946
3.66184
3.66541
3.66529
3.66302
3.65656
3.64626
3.64048
3.6384
3.63635
3.62111
1.40001
1.40001
1.40001
1.40001
1.40001
1.40001
1.40001
1.40001
1.40001
1.40001
1.40001
1.40001
1.40001
1.40001
1.40001
1.40001
1.40001
1.40001
1.40001
1.40001
1.39987
1.4003
1.41147
1.48785
1.74223
2.07858
2.58442
2.9903
3.35814
3.62281
3.65371
3.68674
3.68754
3.67266
3.64538
3.59468
3.53913
3.52272
3.52468
3.53895
3.55813
3.58291
3.60918
3.62636
3.63291
3.63253
3.62316
3.60274
3.58757
3.57914
3.57701
3.57791
3.58466
3.59501
3.60787
3.62094
3.63095
3.63683
3.63853
3.63885
3.64091
3.64123
3.63265
3.61829
3.60486
3.59651
3.59518
3.59614
3.60069
3.61392
3.63376
3.65071
3.65867
3.65905
3.65558
3.64912
3.64018
3.63097
3.62169
3.59631
1.40001
1.40001
1.40001
1.40001
1.40001
1.40001
1.40001
1.40001
1.40001
1.40001
1.40001
1.40001
1.40001
1.40001
1.40001
1.40001
1.40001
1.40001
1.40001
1.40001
1.40001
1.40001
1.4
1.39987
1.40054
1.40901
1.48206
1.72595
2.06054
2.56843
2.96468
3.34958
3.57315
3.58393
3.60258
3.61031
3.5901
3.56625
3.56262
3.56104
3.56445
3.57481
3.59593
3.61606
3.62739
3.62916
3.62879
3.62756
3.62029
3.60819
3.59693
3.59168
3.59144
3.5936
3.59476
3.59735
3.60267
3.60925
3.61709
3.628
3.6374
3.63998
3.64013
3.63759
3.62881
3.61401
3.60123
3.59743
3.5982
3.60187
3.60992
3.62409
3.63813
3.64709
3.64979
3.64621
3.63205
3.61438
3.59982
3.57124
1.40001
1.40001
1.40001
1.40001
1.40001
1.40001
1.40001
1.40001
1.40001
1.40001
1.40001
1.40001
1.40001
1.40001
1.40001
1.40001
1.40001
1.40001
1.40001
1.40001
1.40001
1.40001
1.40001
1.4
1.4
1.40001
1.39989
1.40076
1.41001
1.49631
1.7429
2.11497
2.6131
3.0021
3.39996
3.56605
3.63684
3.65513
3.64208
3.61477
3.58387
3.57285
3.5678
3.56732
3.5817
3.6036
3.61847
3.62735
3.6382
3.65225
3.65539
3.6515
3.64197
3.6255
3.60723
3.5956
3.59097
3.58946
3.58996
3.59633
3.6098
3.62415
3.63633
3.6425
3.64252
3.6414
3.63811
3.6285
3.61493
3.60718
3.60731
3.61233
3.61742
3.62362
3.62777
3.626
3.61601
3.60294
3.59094
3.56625
1.40001
1.40001
1.40001
1.40001
1.40001
1.40001
1.40001
1.40001
1.40001
1.40001
1.40001
1.40001
1.40001
1.40001
1.40001
1.40001
1.40001
1.40001
1.40001
1.40001
1.40001
1.40001
1.40001
1.40001
1.40001
1.40001
1.4
1.4
1.40001
1.39992
1.40144
1.41496
1.52841
1.77601
2.14724
2.6307
3.04961
3.47538
3.58249
3.56574
3.59848
3.6185
3.59731
3.5796
3.56898
3.56835
3.57479
3.58978
3.61841
3.65067
3.67239
3.67866
3.67767
3.6719
3.65723
3.63717
3.61646
3.60035
3.59551
3.59693
3.60249
3.6049
3.60823
3.61973
3.63647
3.64969
3.65542
3.65674
3.65277
3.64088
3.62403
3.61097
3.60807
3.60726
3.60691
3.60655
3.60344
3.59704
3.58911
3.5687
1.40001
1.40001
1.40001
1.40001
1.40001
1.40001
1.40001
1.40001
1.40001
1.40001
1.40001
1.40001
1.40001
1.40001
1.40001
1.40001
1.40001
1.40001
1.40001
1.40001
1.40001
1.40001
1.40001
1.40001
1.40001
1.40001
1.40001
1.40001
1.40001
1.4
1.4
1.39999
1.40004
1.40244
1.42068
1.55806
1.82153
2.29341
2.76538
3.16143
3.48233
3.64546
3.66376
3.65661
3.6236
3.58399
3.56907
3.56435
3.57841
3.61069
3.64277
3.66352
3.67018
3.67035
3.67048
3.67104
3.66874
3.65762
3.64048
3.62604
3.6149
3.60944
3.6084
3.60762
3.6105
3.62221
3.64274
3.65848
3.66142
3.65972
3.65274
3.63697
3.61874
3.60955
3.6081
3.60713
3.60401
3.59689
3.58787
3.57241
1.40001
1.40001
1.40001
1.40001
1.40001
1.40001
1.40001
1.40001
1.40001
1.40001
1.40001
1.40001
1.40001
1.40001
1.40001
1.40001
1.40001
1.40001
1.40001
1.40001
1.40001
1.40001
1.40001
1.40001
1.40001
1.40001
1.40001
1.40001
1.40001
1.40001
1.4
1.4
1.4
1.4
1.39997
1.40026
1.40424
1.44356
1.63835
1.94449
2.41658
2.898
3.36392
3.60267
3.61591
3.62066
3.64682
3.62838
3.60717
3.61081
3.60986
3.61101
3.61349
3.62147
3.63881
3.66039
3.67726
3.68607
3.68867
3.68773
3.67965
3.66066
3.6326
3.61199
3.60733
3.60815
3.61395
3.63268
3.6549
3.66162
3.66015
3.65459
3.64232
3.62497
3.61584
3.6117
3.60807
3.60134
3.59194
3.57318
1.40001
1.40001
1.40001
1.40001
1.40001
1.40001
1.40001
1.40001
1.40001
1.40001
1.40001
1.40001
1.40001
1.40001
1.40001
1.40001
1.40001
1.40001
1.40001
1.40001
1.40001
1.40001
1.40001
1.40001
1.40001
1.40001
1.40001
1.40001
1.40001
1.40001
1.40001
1.40001
1.40001
1.40001
1.4
1.4
1.40001
1.39997
1.40118
1.40999
1.48889
1.72526
2.14496
2.67844
3.09593
3.43611
3.61983
3.65948
3.66859
3.6843
3.66443
3.62179
3.60123
3.59445
3.5973
3.60569
3.62377
3.65866
3.69724
3.71305
3.71407
3.71257
3.69707
3.66277
3.62686
3.61414
3.61605
3.62423
3.63896
3.65438
3.6607
3.66031
3.65296
3.64117
3.63425
3.62983
3.6249
3.6175
3.60498
3.57644
1.40001
1.40001
1.40001
1.40001
1.40001
1.40001
1.40001
1.40001
1.40001
1.40001
1.40001
1.40001
1.40001
1.40001
1.40001
1.40001
1.40001
1.40001
1.40001
1.40001
1.40001
1.40001
1.40001
1.40001
1.40001
1.40001
1.40001
1.40001
1.40001
1.40001
1.40001
1.40001
1.40001
1.40001
1.40001
1.4
1.4
1.4
1.4
1.39999
1.4001
1.40295
1.42867
1.60793
1.93033
2.38244
2.88996
3.3258
3.57661
3.67716
3.68756
3.69986
3.69149
3.66225
3.62598
3.60438
3.59988
3.60919
3.63484
3.67351
3.71045
3.72406
3.72396
3.7135
3.68921
3.65822
3.63935
3.63634
3.64286
3.65782
3.6634
3.66202
3.65776
3.65174
3.64817
3.6455
3.64071
3.63341
3.62106
3.585
1.40001
1.40001
1.40001
1.40001
1.40001
1.40001
1.40001
1.40001
1.40001
1.40001
1.40001
1.40001
1.40001
1.40001
1.40001
1.40001
1.40001
1.40001
1.40001
1.40001
1.40001
1.40001
1.40001
1.40001
1.40001
1.40001
1.40001
1.40001
1.40001
1.40001
1.40001
1.40001
1.40001
1.40001
1.40001
1.40001
1.40001
1.40001
1.40001
1.4
1.4
1.40001
1.39998
1.40134
1.41156
1.48329
1.76408
2.24652
2.75953
3.17777
3.50671
3.66818
3.68809
3.69765
3.71574
3.70053
3.657
3.62777
3.62127
3.62557
3.6396
3.66765
3.70009
3.71096
3.70978
3.69953
3.68698
3.67547
3.67165
3.67082
3.67049
3.66971
3.66538
3.65783
3.6552
3.65404
3.65055
3.64339
3.63396
3.59883
1.40001
1.40001
1.40001
1.40001
1.40001
1.40001
1.40001
1.40001
1.40001
1.40001
1.40001
1.40001
1.40001
1.40001
1.40001
1.40001
1.40001
1.40001
1.40001
1.40001
1.40001
1.40001
1.40001
1.40001
1.40001
1.40001
1.40001
1.40001
1.40001
1.40001
1.40001
1.40001
1.40001
1.40001
1.40001
1.40001
1.40001
1.40001
1.40001
1.40001
1.4
1.4
1.4
1.4
1.39999
1.4002
1.40569
1.44876
1.6859
2.08247
2.6179
3.1055
3.40377
3.60473
3.68964
3.71425
3.73869
3.73053
3.69461
3.63825
3.61304
3.61669
3.63474
3.66177
3.68654
3.69985
3.70251
3.69927
3.69555
3.69256
3.68917
3.6844
3.67481
3.6643
3.66125
3.65983
3.65665
3.6495
3.64248
3.61356
1.40001
1.40001
1.40001
1.40001
1.40001
1.40001
1.40001
1.40001
1.40001
1.40001
1.40001
1.40001
1.40001
1.40001
1.40001
1.40001
1.40001
1.40001
1.40001
1.40001
1.40001
1.40001
1.40001
1.40001
1.40001
1.40001
1.40001
1.40001
1.40001
1.40001
1.40001
1.40001
1.40001
1.40001
1.40001
1.40001
1.40001
1.40001
1.40001
1.40001
1.40001
1.40001
1.40001
1.40001
1.4
1.4
1.4
1.40005
1.40399
1.42681
1.58152
2.00941
2.58317
3.03368
3.33767
3.57599
3.71324
3.73928
3.74285
3.73234
3.68527
3.6479
3.63228
3.63575
3.65419
3.66992
3.68452
3.70146
3.70289
3.7005
3.69472
3.68809
3.68162
3.67386
3.66856
3.66423
3.65896
3.65109
3.6441
3.61983
1.40001
1.40001
1.40001
1.40001
1.40001
1.40001
1.40001
1.40001
1.40001
1.40001
1.40001
1.40001
1.40001
1.40001
1.40001
1.40001
1.40001
1.40001
1.40001
1.40001
1.40001
1.40001
1.40001
1.40001
1.40001
1.40001
1.40001
1.40001
1.40001
1.40001
1.40001
1.40001
1.40001
1.40001
1.40001
1.40001
1.40001
1.40001
1.40001
1.40001
1.40001
1.40001
1.40001
1.40001
1.40001
1.4
1.4
1.4
1.40001
1.4
1.40194
1.42269
1.56538
1.95173
2.53067
3.00144
3.36736
3.59907
3.72094
3.73152
3.73434
3.72928
3.70283
3.67464
3.66966
3.67508
3.68571
3.69305
3.69454
3.69294
3.68909
3.68565
3.68204
3.67803
3.67395
3.66816
3.6586
3.64402
3.63442
3.62106
1.40001
1.40001
1.40001
1.40001
1.40001
1.40001
1.40001
1.40001
1.40001
1.40001
1.40001
1.40001
1.40001
1.40001
1.40001
1.40001
1.40001
1.40001
1.40001
1.40001
1.40001
1.40001
1.40001
1.40001
1.40001
1.40001
1.40001
1.40001
1.40001
1.40001
1.40001
1.40001
1.40001
1.40001
1.40001
1.40001
1.40001
1.40001
1.40001
1.40001
1.40001
1.40001
1.40001
1.40001
1.40001
1.40001
1.40001
1.4
1.4
1.4
1.40001
1.4
1.4018
1.4191
1.54904
1.94221
2.54963
3.03796
3.39651
3.57511
3.68965
3.71757
3.72206
3.71528
3.70754
3.71105
3.713
3.70773
3.69986
3.6914
3.68617
3.68352
3.68303
3.68435
3.68481
3.68012
3.66666
3.64539
3.62025
3.6007
1.40001
1.40001
1.40001
1.40001
1.40001
1.40001
1.40001
1.40001
1.40001
1.40001
1.40001
1.40001
1.40001
1.40001
1.40001
1.40001
1.40001
1.40001
1.40001
1.40001
1.40001
1.40001
1.40001
1.40001
1.40001
1.40001
1.40001
1.40001
1.40001
1.40001
1.40001
1.40001
1.40001
1.40001
1.40001
1.40001
1.40001
1.40001
1.40001
1.40001
1.40001
1.40001
1.40001
1.40001
1.40001
1.40001
1.40001
1.40001
1.40001
1.40001
1.4
1.4
1.40001
1.4
1.40172
1.42164
1.54637
1.9923
2.67477
3.10612
3.38488
3.58072
3.66192
3.67518
3.6829
3.70184
3.7116
3.71039
3.70436
3.6953
3.68697
3.68452
3.68691
3.69237
3.70212
3.70814
3.69956
3.67323
3.62906
3.58961
1.40001
1.40001
1.40001
1.40001
1.40001
1.40001
1.40001
1.40001
1.40001
1.40001
1.40001
1.40001
1.40001
1.40001
1.40001
1.40001
1.40001
1.40001
1.40001
1.40001
1.40001
1.40001
1.40001
1.40001
1.40001
1.40001
1.40001
1.40001
1.40001
1.40001
1.40001
1.40001
1.40001
1.40001
1.40001
1.40001
1.40001
1.40001
1.40001
1.40001
1.40001
1.40001
1.40001
1.40001
1.40001
1.40001
1.40001
1.40001
1.40001
1.40001
1.40001
1.40001
1.40001
1.4
1.4
1.40002
1.40173
1.43489
1.58265
2.06434
2.72215
3.36665
3.48908
3.55811
3.59501
3.64543
3.67726
3.67976
3.67706
3.67205
3.66825
3.66839
3.67246
3.68191
3.69987
3.71779
3.71973
3.71014
3.68072
3.60622
1.40001
1.40001
1.40001
1.40001
1.40001
1.40001
1.40001
1.40001
1.40001
1.40001
1.40001
1.40001
1.40001
1.40001
1.40001
1.40001
1.40001
1.40001
1.40001
1.40001
1.40001
1.40001
1.40001
1.40001
1.40001
1.40001
1.40001
1.40001
1.40001
1.40001
1.40001
1.40001
1.40001
1.40001
1.40001
1.40001
1.40001
1.40001
1.40001
1.40001
1.40001
1.40001
1.40001
1.40001
1.40001
1.40001
1.40001
1.40001
1.40001
1.40001
1.40001
1.40001
1.40001
1.40001
1.40001
1.4
1.4
1.40009
1.40239
1.45532
1.6415
2.1863
2.90954
3.40926
3.63389
3.66041
3.66928
3.67024
3.66677
3.6601
3.65668
3.6572
3.65493
3.65032
3.65196
3.67158
3.70834
3.71973
3.71109
3.65421
1.40001
1.40001
1.40001
1.40001
1.40001
1.40001
1.40001
1.40001
1.40001
1.40001
1.40001
1.40001
1.40001
1.40001
1.40001
1.40001
1.40001
1.40001
1.40001
1.40001
1.40001
1.40001
1.40001
1.40001
1.40001
1.40001
1.40001
1.40001
1.40001
1.40001
1.40001
1.40001
1.40001
1.40001
1.40001
1.40001
1.40001
1.40001
1.40001
1.40001
1.40001
1.40001
1.40001
1.40001
1.40001
1.40001
1.40001
1.40001
1.40001
1.40001
1.40001
1.40001
1.40001
1.40001
1.40001
1.40001
1.4
1.4
1.4
1.40032
1.40461
1.48246
1.82411
2.44166
3.06053
3.50769
3.68884
3.71186
3.70708
3.70938
3.71594
3.71166
3.6903
3.65563
3.63278
3.62802
3.64113
3.68424
3.70622
3.67675
1.40001
1.40001
1.40001
1.40001
1.40001
1.40001
1.40001
1.40001
1.40001
1.40001
1.40001
1.40001
1.40001
1.40001
1.40001
1.40001
1.40001
1.40001
1.40001
1.40001
1.40001
1.40001
1.40001
1.40001
1.40001
1.40001
1.40001
1.40001
1.40001
1.40001
1.40001
1.40001
1.40001
1.40001
1.40001
1.40001
1.40001
1.40001
1.40001
1.40001
1.40001
1.40001
1.40001
1.40001
1.40001
1.40001
1.40001
1.40001
1.40001
1.40001
1.40001
1.40001
1.40001
1.40001
1.40001
1.40001
1.40001
1.4
1.4
1.4
1.4
1.40096
1.416
1.56132
2.04798
2.73687
3.29583
3.49098
3.56764
3.65372
3.72946
3.76334
3.75929
3.73911
3.6882
3.63098
3.61682
3.61695
3.64508
3.66563
1.40001
1.40001
1.40001
1.40001
1.40001
1.40001
1.40001
1.40001
1.40001
1.40001
1.40001
1.40001
1.40001
1.40001
1.40001
1.40001
1.40001
1.40001
1.40001
1.40001
1.40001
1.40001
1.40001
1.40001
1.40001
1.40001
1.40001
1.40001
1.40001
1.40001
1.40001
1.40001
1.40001
1.40001
1.40001
1.40001
1.40001
1.40001
1.40001
1.40001
1.40001
1.40001
1.40001
1.40001
1.40001
1.40001
1.40001
1.40001
1.40001
1.40001
1.40001
1.40001
1.40001
1.40001
1.40001
1.40001
1.40001
1.40001
1.40001
1.4
1.4
1.4
1.40003
1.40314
1.44532
1.68434
2.32132
3.13852
3.37717
3.45461
3.56369
3.71328
3.77346
3.77861
3.77014
3.72155
3.63357
3.59353
3.59178
3.60208
1.40001
1.40001
1.40001
1.40001
1.40001
1.40001
1.40001
1.40001
1.40001
1.40001
1.40001
1.40001
1.40001
1.40001
1.40001
1.40001
1.40001
1.40001
1.40001
1.40001
1.40001
1.40001
1.40001
1.40001
1.40001
1.40001
1.40001
1.40001
1.40001
1.40001
1.40001
1.40001
1.40001
1.40001
1.40001
1.40001
1.40001
1.40001
1.40001
1.40001
1.40001
1.40001
1.40001
1.40001
1.40001
1.40001
1.40001
1.40001
1.40001
1.40001
1.40001
1.40001
1.40001
1.40001
1.40001
1.40001
1.40001
1.40001
1.40001
1.40001
1.40001
1.4
1.4
1.4
1.40025
1.41028
1.51055
1.96641
2.78574
3.33212
3.436
3.52061
3.67453
3.76911
3.77818
3.77245
3.72543
3.63512
3.57144
3.55891
1.40001
1.40001
1.40001
1.40001