/*--------------------------------*- C++ -*----------------------------------*\
| =========                 |                                                 |
| \\      /  F ield         | OpenFOAM: The Open Source CFD Toolbox           |
|  \\    /   O peration     | Version:  2206                                  |
|   \\  /    A nd           | Website:  www.openfoam.com                      |
|    \\/     M anipulation  |                                                 |
\*---------------------------------------------------------------------------*/
FoamFile
{
    version     2.0;
    format      ascii;
    arch        "LSB;label=32;scalar=64";
    class       volVectorField;
    location    "0.1";
    object      U;
}
// * * * * * * * * * * * * * * * * * * * * * * * * * * * * * * * * * * * * * //

dimensions      [0 1 -1 0 0 0 0];

internalField   nonuniform List<vector> 
4800
(
(4.65657 1.47025e-15 0)
(4.65657 1.05485e-14 0)
(4.65657 4.23907e-14 0)
(4.65657 3.04486e-14 0)
(4.65657 2.59545e-14 0)
(4.65657 2.83782e-14 0)
(4.65657 1.13353e-14 0)
(4.65657 -1.64462e-14 0)
(4.65657 -5.66098e-15 0)
(4.65657 4.57779e-14 0)
(4.65657 5.44994e-14 0)
(4.65657 2.74047e-14 0)
(4.65657 1.51026e-14 0)
(4.65657 -8.31144e-15 0)
(4.65657 -5.89769e-15 0)
(4.65657 -2.66046e-15 0)
(4.65657 1.76264e-14 0)
(4.65657 2.62579e-14 0)
(4.65657 -1.02984e-14 0)
(4.65657 2.8805e-15 0)
(4.65657 4.6178e-14 0)
(4.65657 1.39447e-13 0)
(4.65657 1.31773e-13 0)
(4.65657 1.50093e-13 0)
(4.65657 1.74013e-13 0)
(4.65657 1.44635e-13 0)
(4.65657 9.50031e-14 0)
(4.65657 7.62532e-14 0)
(4.65657 8.47246e-14 0)
(4.65657 8.10873e-14 0)
(4.65657 4.13438e-14 0)
(4.65657 9.93172e-15 0)
(4.65657 -5.88768e-15 0)
(4.65657 -9.99506e-15 0)
(4.65657 1.66962e-14 0)
(4.65657 2.84249e-14 0)
(4.65657 4.63813e-14 0)
(4.65657 2.58611e-14 0)
(4.65657 4.52745e-15 0)
(4.65657 -1.09019e-14 0)
(4.65657 7.59798e-15 0)
(4.65657 5.11755e-14 0)
(4.65657 6.66315e-14 0)
(4.65657 7.15357e-14 0)
(4.65657 1.06858e-13 0)
(4.65657 1.02964e-13 0)
(4.65657 7.80068e-14 0)
(4.65657 5.88368e-14 0)
(4.65657 6.14606e-14 0)
(4.65657 7.00921e-14 0)
(4.65657 8.31177e-14 0)
(4.65657 8.47113e-14 0)
(4.65657 6.83451e-14 0)
(4.65657 -5.65764e-15 0)
(4.65657 -4.03103e-14 0)
(4.65657 -1.93367e-16 0)
(4.65657 5.04054e-14 0)
(4.65657 7.3436e-14 0)
(4.65657 6.07372e-14 0)
(4.65657 8.53414e-14 0)
(4.65657 1.27759e-13 0)
(4.65657 1.81115e-13 0)
(4.65657 2.44526e-13 0)
(4.65657 2.67026e-13 0)
(4.65657 1.29456e-13 0)
(4.65657 6.26742e-14 0)
(4.65657 -5.50762e-15 0)
(4.65657 -9.75135e-14 0)
(4.65657 -1.03131e-13 0)
(4.65657 -1.03941e-13 0)
(4.65657 8.84819e-15 0)
(4.65657 1.59948e-13 0)
(4.65657 1.72767e-13 0)
(4.65657 1.52043e-13 0)
(4.65657 5.64297e-14 0)
(4.65657 4.01836e-14 0)
(4.65657 4.2244e-14 0)
(4.65657 5.41427e-14 0)
(4.65657 7.21425e-14 0)
(4.65657 1.17042e-13 0)
(4.65657 -1.35257e-14 0)
(4.65657 -1.39757e-14 0)
(4.65657 -1.79398e-14 0)
(4.65657 -1.17554e-14 0)
(4.65657 2.24872e-14 0)
(4.65657 6.69582e-14 0)
(4.65657 1.15643e-13 0)
(4.65657 1.28559e-13 0)
(4.65657 1.11123e-13 0)
(4.65657 8.93188e-14 0)
(4.65657 1.19354e-13 0)
(4.65657 1.23135e-13 0)
(4.65657 1.28125e-13 0)
(4.65657 7.1599e-14 0)
(4.65657 -6.57113e-14 0)
(4.65657 -5.68932e-14 0)
(4.65657 -3.2759e-14 0)
(4.65657 -2.73847e-14 0)
(4.65657 7.9217e-14 0)
(4.65657 9.2406e-14 0)
(4.65657 8.71851e-14 0)
(4.65657 4.92018e-14 0)
(4.65657 6.81751e-14 0)
(4.65657 8.48513e-14 0)
(4.65657 1.29859e-13 0)
(4.65657 1.25325e-13 0)
(4.65657 1.65502e-13 0)
(4.65657 1.67186e-13 0)
(4.65657 1.05862e-13 0)
(4.65657 1.36887e-13 0)
(4.65657 1.79138e-13 0)
(4.65657 1.74737e-13 0)
(4.65657 2.1076e-13 0)
(4.65657 2.36184e-13 0)
(4.65657 1.66565e-13 0)
(4.65657 1.02798e-13 0)
(4.65657 1.12179e-13 0)
(4.65657 1.02184e-13 0)
(4.65657 1.1798e-13 0)
(4.65657 1.5055e-13 0)
(4.65657 -6.28442e-15 0)
(4.65657 -6.58114e-15 0)
(4.65657 -2.73381e-15 0)
(4.65657 -4.07737e-15 0)
(4.65657 -1.72496e-14 0)
(4.65657 -9.66834e-15 0)
(4.65657 1.43258e-14 0)
(4.65657 3.80366e-14 0)
(4.65657 2.74181e-14 0)
(4.65657 9.0749e-15 0)
(4.65657 7.23758e-14 0)
(4.65657 1.3235e-13 0)
(4.65657 1.5243e-13 0)
(4.65657 1.84262e-13 0)
(4.65657 1.66469e-13 0)
(4.65657 5.98103e-14 0)
(4.65657 9.36495e-15 0)
(4.65657 -4.26207e-14 0)
(4.65657 -4.12905e-14 0)
(4.65657 -9.47864e-14 0)
(4.65657 -1.13633e-13 0)
(4.65657 -1.353e-13 0)
(4.65657 -4.60413e-14 0)
(4.65657 1.01674e-13 0)
(4.65657 1.40038e-13 0)
(4.65657 1.50636e-13 0)
(4.65657 1.84038e-13 0)
(4.65657 2.44132e-13 0)
(4.65657 2.34631e-13 0)
(4.65657 1.88473e-13 0)
(4.65657 1.84208e-13 0)
(4.65657 1.72276e-13 0)
(4.65657 1.61595e-13 0)
(4.65657 1.50233e-13 0)
(4.65657 2.15564e-13 0)
(4.65657 2.14274e-13 0)
(4.65657 1.85452e-13 0)
(4.65657 1.42358e-13 0)
(4.65657 1.26629e-13 0)
(4.65657 1.18715e-13 0)
(4.65657 1.04251e-14 0)
(4.65657 4.15838e-14 0)
(4.65657 3.68364e-14 0)
(4.65657 3.30057e-16 0)
(4.65657 -1.74764e-14 0)
(4.65657 -4.34808e-14 0)
(4.65657 -6.55213e-14 0)
(4.65657 -7.5173e-14 0)
(4.65657 -5.76033e-14 0)
(4.65657 -1.73697e-14 0)
(4.65657 1.41491e-14 0)
(4.65657 4.59979e-14 0)
(4.65657 2.60112e-14 0)
(4.65657 1.3733e-13 0)
(4.65657 1.98721e-13 0)
(4.65657 1.77414e-13 0)
(4.65657 3.46627e-14 0)
(4.65657 -5.66765e-17 0)
(4.65657 -1.18014e-13 0)
(4.65657 -1.80538e-13 0)
(4.65657 -1.83062e-13 0)
(4.65657 -3.13587e-14 0)
(4.65657 6.19207e-14 0)
(4.65657 1.11823e-13 0)
(4.65657 1.88539e-13 0)
(4.65657 2.01278e-13 0)
(4.65657 2.16744e-13 0)
(4.65657 2.19355e-13 0)
(4.65657 1.64532e-13 0)
(4.65657 9.68201e-14 0)
(4.65657 9.99339e-14 0)
(4.65657 1.43922e-13 0)
(4.65657 1.57874e-13 0)
(4.65657 2.09446e-13 0)
(4.65657 1.913e-13 0)
(4.65657 1.60134e-13 0)
(4.65657 8.01638e-14 0)
(4.65657 1.18697e-13 0)
(4.65657 2.1177e-13 0)
(4.65657 1.89413e-13 0)
(4.65657 -4.10071e-16 0)
(4.65657 -1.77231e-14 0)
(4.65657 -6.08838e-14 0)
(4.65657 -6.68715e-14 0)
(4.65657 -4.15738e-14 0)
(4.65657 -3.19288e-14 0)
(4.65657 -4.94519e-14 0)
(4.65657 -7.07989e-14 0)
(4.65657 -2.18171e-14 0)
(4.65657 8.65049e-14 0)
(4.65657 1.26212e-13 0)
(4.65657 7.18324e-14 0)
(4.65657 6.79051e-14 0)
(4.65657 7.99305e-14 0)
(4.65657 9.43263e-14 0)
(4.65657 1.29302e-13 0)
(4.65657 1.13803e-13 0)
(4.65657 2.35874e-14 0)
(4.65657 -6.59714e-14 0)
(4.65657 -2.1389e-13 0)
(4.65657 -2.19895e-13 0)
(4.65657 -1.74603e-13 0)
(4.65657 -6.3761e-14 0)
(4.65657 -4.6108e-14 0)
(4.65657 -2.55344e-14 0)
(4.65657 9.15025e-14 0)
(4.65657 1.25442e-13 0)
(4.65657 1.34157e-13 0)
(4.65657 1.08042e-13 0)
(4.65657 9.35328e-14 0)
(4.65657 8.17775e-14 0)
(4.65657 9.41429e-14 0)
(4.65657 7.28592e-14 0)
(4.65657 7.59898e-14 0)
(4.65657 6.31476e-14 0)
(4.65657 4.61646e-14 0)
(4.65657 5.9957e-14 0)
(4.65657 1.31419e-13 0)
(4.65657 1.3651e-13 0)
(4.65657 1.7305e-13 0)
(4.65657 1.28155e-14 0)
(4.65657 -2.19371e-14 0)
(4.65657 -4.6108e-15 0)
(4.65657 1.32123e-14 0)
(4.65657 8.80819e-15 0)
(4.65657 -6.3711e-15 0)
(4.65657 4.67081e-15 0)
(4.65657 -2.74381e-15 0)
(4.65657 -1.40424e-14 0)
(4.65657 -6.44778e-15 0)
(4.65657 1.35457e-14 0)
(4.65657 4.63247e-14 0)
(4.65657 8.81452e-14 0)
(4.65657 1.08819e-13 0)
(4.65657 1.76397e-14 0)
(4.65657 -4.58513e-14 0)
(4.65657 -1.51026e-14 0)
(4.65657 3.12721e-14 0)
(4.65657 -1.47425e-14 0)
(4.65657 -3.71631e-14 0)
(4.65657 -5.6263e-14 0)
(4.65657 -8.74118e-14 0)
(4.65657 -1.23785e-13 0)
(4.65657 -1.69616e-13 0)
(4.65657 -1.67029e-13 0)
(4.65657 9.8717e-15 0)
(4.65657 7.97871e-14 0)
(4.65657 7.07589e-14 0)
(4.65657 6.59847e-14 0)
(4.65657 9.85003e-14 0)
(4.65657 3.32791e-14 0)
(4.65657 -4.72215e-14 0)
(4.65657 -5.81e-14 0)
(4.65657 -2.11737e-14 0)
(4.65657 3.28957e-14 0)
(4.65657 1.94067e-14 0)
(4.65657 2.10103e-14 0)
(4.65657 6.14039e-14 0)
(4.65657 5.96036e-14 0)
(4.65657 8.02318e-14 0)
(4.65657 -6.65448e-15 0)
(4.65657 -7.00454e-15 0)
(4.65657 1.38991e-14 0)
(4.65657 1.61695e-15 0)
(4.65657 -3.07653e-14 0)
(4.65657 -3.23189e-14 0)
(4.65657 -3.56395e-14 0)
(4.65657 -3.76532e-14 0)
(4.65657 -9.08157e-14 0)
(4.65657 -9.0759e-14 0)
(4.65657 -9.06523e-14 0)
(4.65657 -6.61114e-14 0)
(4.65657 -8.85153e-14 0)
(4.65657 -9.27127e-14 0)
(4.65657 -1.17557e-13 0)
(4.65657 -2.07419e-13 0)
(4.65657 -2.06466e-13 0)
(4.65657 -7.56597e-14 0)
(4.65657 -6.61781e-15 0)
(4.65657 2.01101e-14 0)
(4.65657 -1.69029e-15 0)
(4.65657 5.43427e-16 0)
(4.65657 -7.70766e-14 0)
(4.65657 -1.43858e-13 0)
(4.65657 -1.05245e-13 0)
(4.65657 -3.51527e-14 0)
(4.65657 3.17822e-14 0)
(4.65657 4.57046e-14 0)
(4.65657 4.94385e-14 0)
(4.65657 5.04154e-14 0)
(4.65657 -6.39777e-15 0)
(4.65657 -1.09742e-13 0)
(4.65657 -1.51973e-13 0)
(4.65657 -6.74683e-14 0)
(4.65657 1.08552e-14 0)
(4.65657 4.01269e-14 0)
(4.65657 1.01971e-13 0)
(4.65657 1.43705e-13 0)
(4.65657 1.27255e-13 0)
(4.65657 2.85656e-14 0)
(4.65657 -2.84582e-14 0)
(4.65657 -1.919e-14 0)
(4.65657 -6.38777e-15 0)
(4.65657 -1.81031e-15 0)
(4.65657 -9.20159e-16 0)
(4.65657 4.4271e-14 0)
(4.65657 2.74381e-14 0)
(4.65657 -1.81298e-14 0)
(4.65657 -3.00452e-14 0)
(4.65657 1.1392e-14 0)
(4.65657 4.43743e-15 0)
(4.65657 -6.99687e-14 0)
(4.65657 -9.13558e-14 0)
(4.65657 -8.41279e-14 0)
(4.65657 -8.40912e-14 0)
(4.65657 -1.16077e-13 0)
(4.65657 -2.04672e-13 0)
(4.65657 -2.01245e-13 0)
(4.65657 -1.25332e-13 0)
(4.65657 -1.18711e-13 0)
(4.65657 -6.5598e-14 0)
(4.65657 -7.78868e-14 0)
(4.65657 -8.41612e-14 0)
(4.65657 -1.77457e-13 0)
(4.65657 -2.10123e-13 0)
(4.65657 -1.96661e-13 0)
(4.65657 -1.5279e-13 0)
(4.65657 -1.24385e-13 0)
(4.65657 -1.38927e-13 0)
(4.65657 -1.48679e-13 0)
(4.65657 -1.44495e-13 0)
(4.65657 -1.60378e-13 0)
(4.65657 -1.58421e-13 0)
(4.65657 -8.66116e-14 0)
(4.65657 -3.59495e-14 0)
(4.65657 4.57812e-14 0)
(4.65657 1.85225e-13 0)
(4.65657 2.36954e-13 0)
(4.65657 1.51149e-13 0)
(4.65657 3.20313e-14 0)
(4.65657 3.6673e-17 0)
(4.65657 1.74163e-14 0)
(4.65657 1.76697e-14 0)
(4.65657 1.81931e-14 0)
(4.65657 2.25939e-14 0)
(4.65657 3.35025e-14 0)
(4.65657 4.56179e-14 0)
(4.65657 4.06203e-14 0)
(4.65657 5.63397e-14 0)
(4.65657 4.71448e-14 0)
(4.65657 3.75565e-14 0)
(4.65657 3.62329e-14 0)
(4.65657 -1.45292e-14 0)
(4.65657 -7.97638e-14 0)
(4.65657 -1.143e-13 0)
(4.65657 -1.27742e-13 0)
(4.65657 -1.7275e-13 0)
(4.65657 -2.00641e-13 0)
(4.65657 -1.72553e-13 0)
(4.65657 -8.22575e-14 0)
(4.65657 -3.16855e-14 0)
(4.65657 -4.79383e-14 0)
(4.65657 -1.02291e-13 0)
(4.65657 -1.55153e-13 0)
(4.65657 -2.20471e-13 0)
(4.65657 -2.92834e-13 0)
(4.65657 -3.56222e-13 0)
(4.65657 -3.22892e-13 0)
(4.65657 -3.03302e-13 0)
(4.65657 -3.23409e-13 0)
(4.65657 -2.26799e-13 0)
(4.65657 -7.1389e-14 0)
(4.65657 -4.40043e-14 0)
(4.65657 -8.39978e-14 0)
(4.65657 -8.41879e-14 0)
(4.65657 -7.20124e-15 0)
(4.65657 8.45979e-14 0)
(4.65657 9.17058e-14 0)
(4.65657 1.32903e-13 0)
(4.65657 1.37762e-13 0)
(4.65657 2.02235e-14 0)
(4.65657 7.22091e-14 0)
(4.65657 6.89119e-14 0)
(4.65657 6.20941e-14 0)
(4.65657 4.13238e-14 0)
(4.65657 3.14088e-14 0)
(4.65657 6.78284e-14 0)
(4.65657 1.38781e-13 0)
(4.65657 1.28452e-13 0)
(4.65657 8.46113e-14 0)
(4.65657 8.26343e-14 0)
(4.65657 9.48364e-14 0)
(4.65657 9.79136e-14 0)
(4.65657 1.77997e-14 0)
(4.65657 -6.29309e-14 0)
(4.65657 -9.92471e-14 0)
(4.65657 -1.04778e-13 0)
(4.65657 -8.4758e-14 0)
(4.65657 -7.91737e-14 0)
(4.65657 -1.55727e-14 0)
(4.65657 1.19987e-14 0)
(4.65657 3.0752e-14 0)
(4.65657 -7.24625e-14 0)
(4.65657 -9.21726e-14 0)
(4.65657 -9.35262e-14 0)
(4.65657 -1.04421e-13 0)
(4.65657 -1.46865e-13 0)
(4.65657 -2.09046e-13 0)
(4.65657 -2.27703e-13 0)
(4.65657 -2.28933e-13 0)
(4.65657 -1.87236e-13 0)
(4.65657 -1.44542e-13 0)
(4.65657 -1.01628e-13 0)
(4.65657 -6.46012e-14 0)
(4.65657 -1.55827e-14 0)
(4.65657 5.72766e-15 0)
(4.65657 -1.7273e-14 0)
(4.65657 -3.18422e-14 0)
(4.65657 1.06785e-14 0)
(4.65657 6.66264e-14 0)
(4.65657 1.68129e-14 0)
(4.65657 1.00184e-14 0)
(4.65657 4.06604e-14 0)
(4.65657 7.87169e-14 0)
(4.65657 1.23618e-13 0)
(4.65657 1.22675e-13 0)
(4.65657 1.20994e-13 0)
(4.65657 8.86586e-14 0)
(4.65657 8.28676e-14 0)
(4.65657 8.22042e-14 0)
(4.65657 6.97454e-14 0)
(4.65657 7.55664e-14 0)
(4.65657 1.07882e-13 0)
(4.65657 1.09496e-13 0)
(4.65657 -2.76281e-14 0)
(4.65657 -1.05485e-13 0)
(4.65657 -7.61832e-14 0)
(4.65657 -1.73697e-14 0)
(4.65657 1.44858e-14 0)
(4.65657 -4.70181e-14 0)
(4.65657 -5.34059e-14 0)
(4.65657 -4.77783e-14 0)
(4.65657 -6.52613e-14 0)
(4.65657 -5.90835e-14 0)
(4.65657 -4.6078e-14 0)
(4.65657 -3.46493e-14 0)
(4.65657 -6.85152e-14 0)
(4.65657 -9.677e-14 0)
(4.65657 -1.15177e-13 0)
(4.65657 -1.11859e-13 0)
(4.65657 -1.03184e-13 0)
(4.65657 -1.1662e-13 0)
(4.65657 -5.83001e-14 0)
(4.65657 1.01768e-13 0)
(4.65657 8.71851e-14 0)
(4.65657 -7.73867e-14 0)
(4.65657 -1.7194e-13 0)
(4.65657 -1.71256e-13 0)
(4.65657 -1.5294e-13 0)
(4.65657 -4.06229e-14 0)
(4.65657 -5.76766e-16 0)
(4.65657 -4.48111e-14 0)
(4.65657 -7.11289e-14 0)
(4.65657 -5.46528e-14 0)
(4.65657 -1.45625e-14 0)
(4.65657 -1.44358e-14 0)
(4.65657 -1.01684e-14 0)
(4.65657 4.60079e-15 0)
(4.65657 1.10352e-14 0)
(4.65657 8.46813e-15 0)
(4.65657 1.03018e-14 0)
(4.65657 -1.12686e-14 0)
(4.65657 -4.65347e-14 0)
(4.65657 -5.14456e-14 0)
(4.65657 -7.95137e-14 0)
(4.65657 -3.08487e-14 0)
(4.65657 -8.8682e-15 0)
(4.65657 2.4921e-14 0)
(4.65657 3.75565e-14 0)
(4.65657 -2.21938e-14 0)
(4.65657 -3.39859e-14 0)
(4.65657 -5.55529e-14 0)
(4.65657 -6.49846e-14 0)
(4.65657 -3.15154e-14 0)
(4.65657 -3.05953e-14 0)
(4.65657 -3.47327e-14 0)
(4.65657 -8.03339e-14 0)
(4.65657 -6.29075e-14 0)
(4.65657 -5.2359e-14 0)
(4.65657 -7.24825e-14 0)
(4.65657 -5.10988e-14 0)
(4.65657 -2.77481e-14 0)
(4.65657 -2.39608e-14 0)
(4.65657 8.36678e-14 0)
(4.65657 1.38841e-13 0)
(4.65657 9.8327e-14 0)
(4.65657 5.9877e-14 0)
(4.65657 2.18171e-14 0)
(4.65657 1.39991e-14 0)
(4.65657 3.84283e-15 0)
(4.65657 -1.32223e-14 0)
(4.65657 -1.09152e-14 0)
(4.65657 -1.76564e-14 0)
(4.65657 -1.85199e-14 0)
(4.65657 -3.63663e-14 0)
(4.65657 -5.46294e-14 0)
(4.65657 -4.12605e-14 0)
(4.65657 -2.65679e-14 0)
(4.65657 -4.62113e-14 0)
(4.65657 -7.46262e-14 0)
(4.65657 -7.08422e-14 0)
(4.65657 -8.31844e-14 0)
(4.65657 -9.07823e-14 0)
(4.65657 -6.30509e-14 0)
(4.65657 3.72064e-15 0)
(4.65657 1.09959e-13 0)
(4.65657 1.22588e-13 0)
(4.65657 1.08562e-13 0)
(4.65657 3.24589e-14 0)
(4.65657 2.41075e-14 0)
(4.65657 3.74665e-14 0)
(4.65657 3.69797e-14 0)
(4.65657 1.67296e-14 0)
(4.65657 1.25755e-14 0)
(4.65657 1.53493e-14 0)
(4.65657 8.25142e-15 0)
(4.65657 -4.4381e-14 0)
(4.65657 -1.1656e-13 0)
(4.65657 -1.7656e-13 0)
(4.65657 -1.65182e-13 0)
(4.65657 -1.42455e-13 0)
(4.65657 -1.12549e-13 0)
(4.65657 -7.42528e-14 0)
(4.65657 -2.07669e-14 0)
(4.65657 5.64064e-14 0)
(4.65657 6.58247e-14 0)
(4.65657 7.5343e-14 0)
(4.65657 7.67899e-14 0)
(4.65657 6.3951e-14 0)
(4.65657 5.85797e-14 0)
(4.65657 6.21774e-15 0)
(4.65657 2.80848e-14 0)
(4.65657 5.89168e-14 0)
(4.65657 8.1144e-14 0)
(4.65657 4.71115e-14 0)
(4.65657 -3.29824e-14 0)
(4.65657 -6.77984e-14 0)
(4.65657 -6.99721e-14 0)
(4.65657 -7.97038e-14 0)
(4.65657 -8.93388e-14 0)
(4.65657 -1.22214e-13 0)
(4.65657 -9.02856e-14 0)
(4.65657 -3.23356e-14 0)
(4.65657 5.07788e-14 0)
(4.65657 1.3434e-13 0)
(4.65657 2.04759e-13 0)
(4.65657 1.9288e-13 0)
(4.65657 1.5455e-13 0)
(4.65657 1.22985e-13 0)
(4.65657 1.07559e-13 0)
(4.65657 8.43679e-14 0)
(4.65657 7.20058e-14 0)
(4.65657 1.1505e-13 0)
(4.65657 6.84251e-14 0)
(4.65657 1.7153e-14 0)
(4.65657 1.7513e-14 0)
(4.65657 3.6723e-14 0)
(4.65657 -5.13589e-14 0)
(4.65657 -1.46859e-13 0)
(4.65657 -1.46369e-13 0)
(4.65657 -1.48652e-13 0)
(4.65657 -1.64795e-13 0)
(4.65657 -5.07221e-14 0)
(4.65657 -1.96267e-14 0)
(4.65657 4.41243e-14 0)
(4.65657 4.74382e-14 0)
(4.65657 -6.50346e-14 0)
(4.65657 -9.37662e-14 0)
(4.65657 -7.66799e-14 0)
(4.65657 -3.89878e-14 0)
(4.65657 -1.76697e-15 0)
(4.65657 4.63747e-15 0)
(4.65657 4.85217e-14 0)
(4.65657 3.59295e-14 0)
(4.65657 -2.1367e-14 0)
(4.65657 -8.02139e-14 0)
(4.65657 -1.12579e-13 0)
(4.65657 -7.95571e-14 0)
(4.65657 -4.94185e-14 0)
(4.65657 -6.50679e-14 0)
(4.65657 -6.78517e-14 0)
(4.65657 -4.08737e-14 0)
(4.65657 -1.10486e-14 0)
(4.65657 4.41009e-14 0)
(4.65657 8.99655e-14 0)
(4.65657 9.84003e-14 0)
(4.65657 1.23418e-13 0)
(4.65657 1.97421e-13 0)
(4.65657 2.56198e-13 0)
(4.65657 2.82395e-13 0)
(4.65657 2.16574e-13 0)
(4.65657 1.87169e-13 0)
(4.65657 1.79894e-13 0)
(4.65657 1.68963e-13 0)
(4.65657 1.83322e-13 0)
(4.65657 1.83198e-13 0)
(4.65657 1.18931e-13 0)
(4.65657 7.62165e-14 0)
(4.65657 4.94152e-14 0)
(4.65657 4.87418e-15 0)
(4.65657 3.25323e-14 0)
(4.65657 2.23039e-14 0)
(4.65657 -7.66199e-14 0)
(4.65657 -1.61801e-13 0)
(4.65657 -1.73977e-13 0)
(4.65657 -1.39794e-13 0)
(4.65657 -4.17872e-14 0)
(4.65657 1.3329e-14 0)
(4.65657 2.29306e-14 0)
(4.65657 -2.23793e-14 0)
(4.65657 -2.12103e-14 0)
(4.65657 -6.27208e-14 0)
(4.65657 -7.98838e-14 0)
(4.65657 -7.41361e-14 0)
(4.65657 -2.95551e-14 0)
(4.65657 4.01103e-14 0)
(4.65657 1.57761e-14 0)
(4.65657 -1.33823e-14 0)
(4.65657 -4.79116e-14 0)
(4.65657 -7.37894e-14 0)
(4.65657 -7.04222e-14 0)
(4.65657 -7.59865e-14 0)
(4.65657 -9.63666e-14 0)
(4.65657 -8.83153e-15 0)
(4.65657 1.48759e-14 0)
(4.65657 2.45676e-14 0)
(4.65657 2.4911e-14 0)
(4.65657 1.42091e-14 0)
(4.65657 3.50794e-14 0)
(4.65657 3.62496e-14 0)
(4.65657 5.72132e-14 0)
(4.65657 5.98703e-14 0)
(4.65657 -3.07053e-14 0)
(4.65657 -3.10754e-14 0)
(4.65657 2.35674e-14 0)
(4.65657 4.46044e-14 0)
(4.65657 4.90251e-14 0)
(4.65657 9.66467e-14 0)
(4.65657 1.66765e-13 0)
(4.65657 1.88309e-13 0)
(4.65657 1.32416e-13 0)
(4.65657 5.06421e-15 0)
(4.65657 -7.34293e-14 0)
(4.65657 -1.5188e-13 0)
(4.65657 -1.30683e-13 0)
(4.65657 -8.96688e-14 0)
(4.65657 2.72014e-14 0)
(4.65657 5.81667e-14 0)
(4.65657 3.85767e-14 0)
(4.65657 4.10313e-15 0)
(4.65657 1.17687e-15 0)
(4.65657 -7.45129e-15 0)
(4.65657 -7.78801e-14 0)
(4.65657 -1.05825e-13 0)
(4.65657 -5.77866e-14 0)
(4.65657 3.89067e-15 0)
(4.65657 5.27758e-14 0)
(4.65657 4.54078e-14 0)
(4.65657 1.54327e-14 0)
(4.65657 2.36941e-14 0)
(4.65657 -2.34374e-14 0)
(4.65657 -5.9607e-14 0)
(4.65657 -7.65699e-14 0)
(4.65657 7.30793e-15 0)
(4.65657 -6.29775e-15 0)
(4.65657 1.87399e-14 0)
(4.65657 3.94068e-15 0)
(4.65657 -1.1422e-13 0)
(4.65657 -1.9282e-13 0)
(4.65657 -2.1497e-13 0)
(4.65657 -2.15327e-13 0)
(4.65657 -1.69289e-13 0)
(4.65657 -1.05472e-13 0)
(4.65657 -5.38693e-14 0)
(4.65657 -1.33566e-13 0)
(4.65657 -1.60478e-13 0)
(4.65657 -1.20357e-13 0)
(4.65657 3.32724e-15 0)
(4.65657 1.83458e-13 0)
(4.65657 1.64335e-13 0)
(4.65657 7.22058e-14 0)
(4.65657 2.87183e-14 0)
(4.65657 1.22354e-14 0)
(4.65657 4.0437e-14 0)
(4.65657 6.59414e-14 0)
(4.65657 7.44495e-14 0)
(4.65657 3.37625e-14 0)
(4.65657 2.62179e-14 0)
(4.65657 1.45058e-14 0)
(4.65657 2.37686e-14 0)
(4.65657 -6.33109e-15 0)
(4.65657 5.45094e-15 0)
(4.65657 1.10819e-14 0)
(4.65657 -3.57728e-14 0)
(4.65657 -5.55596e-14 0)
(4.65657 -3.34691e-14 0)
(4.65657 2.78181e-14 0)
(4.65657 3.78999e-14 0)
(4.65657 3.15254e-14 0)
(4.65657 4.18772e-14 0)
(4.65657 8.66816e-17 0)
(4.65657 -8.4908e-14 0)
(4.65657 -9.45697e-14 0)
(4.65657 -1.16397e-13 0)
(4.65657 -1.13273e-13 0)
(4.65657 -5.27925e-14 0)
(4.65657 -5.16556e-14 0)
(4.65657 -3.75765e-14 0)
(4.65657 -6.04504e-14 0)
(4.65657 -9.64467e-14 0)
(4.65657 -1.13353e-13 0)
(4.65657 -1.65095e-13 0)
(4.65657 -1.49459e-13 0)
(4.65657 -1.06472e-13 0)
(4.65657 -9.41396e-14 0)
(4.65657 -5.31092e-14 0)
(4.65657 -1.06652e-14 0)
(4.65657 3.67397e-14 0)
(4.65657 2.73781e-14 0)
(4.65657 -3.18322e-14 0)
(4.65657 -3.81233e-14 0)
(4.65657 -3.57395e-14 0)
(4.65657 -1.46392e-14 0)
(4.65657 2.56211e-14 0)
(4.65657 9.21826e-15 0)
(4.65657 -9.16692e-14 0)
(4.65657 -1.38411e-13 0)
(4.65657 -9.45497e-15 0)
(4.65657 -2.51543e-14 0)
(4.65657 -2.48665e-14 0)
(4.65657 4.8475e-15 0)
(4.65657 3.39592e-14 0)
(4.65657 6.58114e-14 0)
(4.65657 5.10055e-14 0)
(4.65657 3.67597e-14 0)
(4.65657 3.97869e-14 0)
(4.65657 2.84649e-14 0)
(4.65657 -1.21688e-15 0)
(4.65657 -1.12686e-15 0)
(4.65657 -6.51112e-15 0)
(4.65657 -5.22424e-15 0)
(4.65657 -3.41226e-14 0)
(4.65657 -3.03152e-14 0)
(4.65657 -6.31976e-14 0)
(4.65657 -2.94317e-14 0)
(4.65657 -5.56863e-14 0)
(4.65657 -7.46796e-15 0)
(4.65657 -3.14421e-14 0)
(4.65657 2.68713e-14 0)
(4.65657 9.2726e-14 0)
(4.65657 9.4303e-14 0)
(4.65657 5.82334e-14 0)
(4.65657 7.12923e-14 0)
(4.65657 -9.99173e-15 0)
(4.65657 -3.2979e-14 0)
(4.65657 1.42025e-14 0)
(4.65657 2.98318e-14 0)
(4.65657 2.3424e-14 0)
(4.65657 1.77364e-14 0)
(4.65657 -1.15287e-14 0)
(4.65657 -4.76682e-14 0)
(4.65657 -5.21423e-14 0)
(4.65657 -3.94268e-14 0)
(4.65657 -4.33041e-14 0)
(4.65657 -7.93104e-14 0)
(4.65657 -9.86804e-14 0)
(4.65657 -9.07823e-14 0)
(4.65657 -1.18944e-13 0)
(4.65657 -8.91454e-14 0)
(4.65657 -9.20749e-14 0)
(4.65657 3.43193e-14 0)
(4.65657 5.33225e-14 0)
(4.65657 5.75699e-14 0)
(4.65657 5.30825e-14 0)
(4.65657 1.44892e-14 0)
(4.65657 -9.00822e-15 0)
(4.65657 -5.88335e-14 0)
(4.65657 -6.45511e-14 0)
(4.65657 -1.94334e-14 0)
(4.65657 1.66229e-14 0)
(4.65657 4.58746e-15 0)
(4.65657 -1.3509e-14 0)
(4.65657 2.05702e-14 0)
(4.65657 7.10956e-14 0)
(4.65657 5.16356e-14 0)
(4.65657 1.98768e-14 0)
(4.65657 1.45092e-14 0)
(4.65657 2.5121e-14 0)
(4.65657 8.03972e-14 0)
(4.65657 2.02222e-13 0)
(4.65657 1.89453e-13 0)
(4.65657 1.78941e-13 0)
(4.65657 2.16737e-13 0)
(4.65657 1.50333e-13 0)
(4.65657 1.59668e-13 0)
(4.65657 6.70849e-14 0)
(4.65657 3.76665e-14 0)
(4.65657 2.10803e-14 0)
(4.65657 2.51043e-15 0)
(4.65657 -1.26355e-15 0)
(4.65657 1.71963e-14 0)
(4.65657 -2.81715e-15 0)
(4.65657 -2.69613e-14 0)
(4.65657 -4.58713e-14 0)
(4.65657 -7.21525e-14 0)
(4.65657 -8.24876e-14 0)
(4.65657 -1.02801e-13 0)
(4.65657 -6.87852e-14 0)
(4.65657 -2.08036e-14 0)
(4.65657 -2.83037e-14 0)
(4.65657 1.41691e-15 0)
(4.65657 -2.05469e-14 0)
(4.65657 -6.13773e-15 0)
(4.65657 6.76784e-16 0)
(4.65657 -8.21475e-15 0)
(4.65657 -7.5023e-14 0)
(4.65657 -9.73735e-14 0)
(4.65657 -9.02556e-14 0)
(4.65657 -5.09055e-14 0)
(4.65657 7.68133e-15 0)
(4.65657 1.56794e-14 0)
(4.65657 5.72366e-14 0)
(4.65657 6.81784e-14 0)
(4.65657 5.45094e-14 0)
(4.65657 7.36927e-14 0)
(4.65657 9.31461e-14 0)
(4.65657 3.93201e-14 0)
(4.65657 2.54111e-14 0)
(4.65657 3.80566e-14 0)
(4.65657 1.51359e-15 0)
(4.65657 -1.04651e-14 0)
(4.65657 3.78332e-14 0)
(4.65657 1.09642e-13 0)
(4.65657 5.85334e-14 0)
(4.65657 -7.27092e-14 0)
(4.65657 -1.57897e-13 0)
(4.65657 -2.00755e-13 0)
(4.65657 -1.9126e-13 0)
(4.65657 -1.78014e-13 0)
(4.65657 -1.22404e-13 0)
(4.65657 -6.45145e-14 0)
(4.65657 -2.27073e-14 0)
(4.65657 -2.06969e-14 0)
(4.65657 -1.21591e-13 0)
(4.65657 -1.47832e-13 0)
(4.65657 -1.61955e-13 0)
(4.65657 -1.29426e-13 0)
(4.65657 -3.50227e-14 0)
(4.65657 -4.24007e-14 0)
(4.65657 -4.70848e-14 0)
(4.65657 -2.26606e-14 0)
(4.65657 -7.01821e-14 0)
(4.65657 -7.47996e-14 0)
(4.65657 -6.04638e-14 0)
(4.65657 -7.97471e-15 0)
(4.65657 -7.08456e-15 0)
(4.65657 1.11119e-14 0)
(4.65657 1.68963e-14 0)
(4.65657 4.31775e-14 0)
(4.65657 5.40193e-14 0)
(4.65657 6.5488e-14 0)
(4.65657 1.30613e-13 0)
(4.65657 1.1718e-13 0)
(4.65657 7.61765e-14 0)
(4.65657 3.60062e-14 0)
(4.65657 2.58078e-14 0)
(4.65657 4.10104e-14 0)
(4.65657 3.76065e-14 0)
(4.65657 1.15587e-14 0)
(4.65657 -2.56511e-14 0)
(4.65657 -2.11403e-14 0)
(4.65657 2.26006e-14 0)
(4.65657 3.49094e-14 0)
(4.65657 2.49943e-14 0)
(4.65657 1.63662e-14 0)
(4.65657 -6.72616e-14 0)
(4.65657 -1.20414e-13 0)
(4.65657 -1.1681e-13 0)
(4.65657 -1.16517e-13 0)
(4.65657 -1.52916e-13 0)
(4.65657 -1.70393e-13 0)
(4.65657 -3.72331e-14 0)
(4.65657 6.69582e-14 0)
(4.65657 4.16005e-14 0)
(4.65657 -1.90766e-14 0)
(4.65657 -5.27258e-14 0)
(4.65657 -1.53793e-14 0)
(4.65657 4.00869e-14 0)
(4.65657 8.09973e-14 0)
(4.65657 8.73152e-14 0)
(4.65657 -1.68062e-14 0)
(4.65657 -6.96787e-15 0)
(4.65657 -4.2324e-14 0)
(4.65657 -3.92801e-14 0)
(4.65657 3.35391e-14 0)
(4.65657 6.52313e-14 0)
(4.65657 7.3446e-14 0)
(4.65657 7.20224e-14 0)
(4.65657 5.89769e-14 0)
(4.65657 4.93752e-14 0)
(4.65657 6.24508e-14 0)
(4.65657 3.24723e-14 0)
(4.65657 5.61964e-14 0)
(4.65657 7.42995e-14 0)
(4.65657 5.92002e-14 0)
(4.65657 -3.09987e-14 0)
(4.65657 -6.18807e-14 0)
(4.65657 -7.34527e-14 0)
(4.65657 -3.2779e-14 0)
(4.65657 -3.17388e-15 0)
(4.65657 1.18954e-14 0)
(4.65657 3.91401e-14 0)
(4.65657 2.81949e-14 0)
(4.65657 3.23656e-14 0)
(4.65657 -1.81031e-15 0)
(4.65657 -1.20421e-14 0)
(4.65657 -4.16739e-15 0)
(4.65657 -2.80848e-14 0)
(4.65657 -7.91237e-14 0)
(4.65657 -9.32394e-14 0)
(4.65657 -9.38962e-14 0)
(4.65657 -6.3521e-14 0)
(4.65657 -9.37895e-14 0)
(4.65657 -4.00369e-14 0)
(4.65657 -6.33109e-15 0)
(4.65657 1.99801e-14 0)
(4.65657 1.86199e-14 0)
(4.65657 3.43926e-14 0)
(4.65657 4.47811e-14 0)
(4.65657 6.14335e-14 0)
(4.65657 3.75398e-15 0)
(4.65657 -8.74151e-15 0)
(4.65657 -4.67081e-15 0)
(4.65657 2.1137e-15 0)
(4.65657 -1.09452e-14 0)
(4.65657 1.59528e-14 0)
(4.65657 6.75317e-14 0)
(4.65657 1.33136e-13 0)
(4.65657 7.702e-14 0)
(4.65657 4.16605e-14 0)
(4.65657 5.74099e-14 0)
(4.65657 5.8e-14 0)
(4.65657 1.61361e-14 0)
(4.65657 1.15087e-14 0)
(4.65657 3.47727e-14 0)
(4.65657 5.47828e-14 0)
(4.65657 5.99537e-14 0)
(4.65657 5.29425e-14 0)
(4.65657 5.73832e-14 0)
(4.65657 -8.76485e-15 0)
(4.65657 -1.03031e-13 0)
(4.65657 -1.44342e-13 0)
(4.65657 -1.65925e-13 0)
(4.65657 -1.90236e-13 0)
(4.65657 -1.5358e-13 0)
(4.65657 -9.84037e-14 0)
(4.65657 -3.24323e-14 0)
(4.65657 -4.54278e-14 0)
(4.65657 -4.77549e-14 0)
(4.65657 -3.34391e-14 0)
(4.65657 -2.26706e-14 0)
(4.65657 -1.95167e-14 0)
(4.65657 -1.33746e-13 0)
(4.65657 -1.25065e-13 0)
(4.65657 -1.10379e-13 0)
(4.65657 -1.15647e-13 0)
(4.65657 -9.50231e-14 0)
(4.65657 -1.01598e-13 0)
(4.65657 -1.07292e-13 0)
(4.65657 -1.59907e-13 0)
(4.65657 7.06122e-15 0)
(4.65657 -8.38145e-15 0)
(4.65657 3.40025e-14 0)
(4.65657 2.61145e-14 0)
(4.65657 -1.30923e-14 0)
(4.65657 -3.844e-15 0)
(4.65657 7.95471e-14 0)
(4.65657 1.00471e-13 0)
(4.65657 7.37294e-14 0)
(4.65657 7.23125e-14 0)
(4.65657 4.54245e-14 0)
(4.65657 5.58596e-14 0)
(4.65657 3.81699e-14 0)
(4.65657 2.8915e-14 0)
(4.65657 3.58529e-14 0)
(4.65657 8.6805e-14 0)
(4.65657 1.41601e-13 0)
(4.65657 1.64832e-13 0)
(4.65657 3.22422e-14 0)
(4.65657 -8.48146e-15 0)
(4.65657 -9.61333e-14 0)
(4.65657 -1.83728e-13 0)
(4.65657 -1.78704e-13 0)
(4.65657 -1.7652e-13 0)
(4.65657 -1.43828e-13 0)
(4.65657 1.7463e-14 0)
(4.65657 8.80219e-14 0)
(4.65657 5.13922e-14 0)
(4.65657 -1.83932e-14 0)
(4.65657 -1.93733e-14 0)
(4.65657 2.31873e-14 0)
(4.65657 2.03035e-14 0)
(4.65657 -2.62212e-14 0)
(4.65657 -1.3755e-13 0)
(4.65657 -1.77034e-13 0)
(4.65657 -1.77487e-13 0)
(4.65657 -1.34086e-13 0)
(4.65657 -8.41112e-14 0)
(4.65657 -1.04495e-13 0)
(4.65657 -1.47894e-13 0)
(4.65657 8.25142e-15 0)
(4.65657 6.90586e-14 0)
(4.65657 1.14997e-13 0)
(4.65657 1.02618e-13 0)
(4.65657 5.86801e-14 0)
(4.65657 5.61964e-14 0)
(4.65657 3.06653e-14 0)
(4.65657 2.89417e-14 0)
(4.65657 4.13105e-14 0)
(4.65657 5.54162e-14 0)
(4.65657 3.4616e-14 0)
(4.65657 -1.70363e-15 0)
(4.65657 -8.71817e-15 0)
(4.65657 -6.65782e-15 0)
(4.65657 3.28457e-14 0)
(4.65657 6.14273e-14 0)
(4.65657 3.88667e-14 0)
(4.65657 4.06737e-14 0)
(4.65657 1.50459e-14 0)
(4.65657 1.31389e-14 0)
(4.65657 2.59578e-14 0)
(4.65657 4.13838e-14 0)
(4.65657 4.71181e-14 0)
(4.65657 4.52812e-14 0)
(4.65657 1.12953e-14 0)
(4.65657 -1.41458e-14 0)
(4.65657 -6.85118e-14 0)
(4.65657 -7.22458e-14 0)
(4.65657 -6.01637e-14 0)
(4.65657 -2.41275e-14 0)
(4.65657 -4.58746e-15 0)
(4.65657 -1.01384e-14 0)
(4.65657 2.92017e-14 0)
(4.65657 3.6683e-14 0)
(4.65657 1.70363e-14 0)
(4.65657 5.82101e-15 0)
(4.65657 -9.80169e-15 0)
(4.65657 -3.04053e-14 0)
(4.65657 -1.08399e-13 0)
(4.65657 -6.63696e-14 0)
(4.65657 -4.33408e-17 0)
(4.65657 1.7623e-14 0)
(4.65657 5.44094e-15 0)
(4.65657 1.84765e-14 0)
(4.65657 3.12787e-14 0)
(4.65657 3.20622e-14 0)
(4.65657 1.84899e-14 0)
(4.65657 -3.44159e-14 0)
(4.65657 -5.14689e-14 0)
(4.65657 -8.24542e-14 0)
(4.65657 -7.87869e-14 0)
(4.65657 -3.49094e-14 0)
(4.65657 -2.57211e-14 0)
(4.65657 -2.69647e-14 0)
(4.65657 -5.53096e-14 0)
(4.65657 -6.99687e-14 0)
(4.65657 -7.21058e-14 0)
(4.65657 -9.09257e-14 0)
(4.65657 -1.84899e-14 0)
(4.65657 1.1832e-14 0)
(4.65657 1.935e-14 0)
(4.65657 4.89685e-14 0)
(4.65657 3.90701e-14 0)
(4.65657 1.69796e-14 0)
(4.65657 2.9115e-14 0)
(4.65657 1.06385e-14 0)
(4.65657 -1.00717e-14 0)
(4.65657 2.18371e-14 0)
(4.65657 6.52579e-14 0)
(4.65657 4.53645e-14 0)
(4.65657 -3.44226e-14 0)
(4.65657 4.11538e-14 0)
(4.65657 1.79728e-13 0)
(4.65657 2.42779e-13 0)
(4.65657 2.21292e-13 0)
(4.65657 1.98394e-13 0)
(4.65657 8.5118e-14 0)
(4.65657 -5.28691e-14 0)
(4.65657 -1.30212e-13 0)
(4.65657 -6.10221e-14 0)
(4.65657 1.23688e-15 0)
(4.65657 4.20406e-15 0)
(4.65657 -6.71783e-15 0)
(4.65657 4.38042e-14 0)
(4.65657 6.07472e-14 0)
(4.65657 3.12787e-14 0)
(4.65657 -1.06885e-14 0)
(4.65657 -3.43126e-14 0)
(4.65657 -1.20871e-13 0)
(4.65657 -1.62068e-13 0)
(4.65657 -1.36594e-13 0)
(4.65657 -6.09339e-14 0)
(4.65657 4.57612e-14 0)
(4.65657 4.55079e-14 0)
(4.65657 -1.97801e-14 0)
(4.65657 -8.77085e-14 0)
(4.65657 -8.52881e-14 0)
(4.65657 -5.31792e-14 0)
(4.65657 5.52295e-14 0)
(4.65657 6.60814e-14 0)
(4.65657 6.51379e-14 0)
(4.65657 7.40295e-14 0)
(4.65657 4.76782e-14 0)
(4.65657 2.88917e-14 0)
(4.65657 2.76714e-16 0)
(4.65657 -1.41191e-14 0)
(4.65657 1.32563e-13 0)
(4.65657 1.74577e-13 0)
(4.65657 2.06096e-13 0)
(4.65657 1.47379e-13 0)
(4.65657 1.20281e-13 0)
(4.65657 1.12163e-13 0)
(4.65657 9.54732e-14 0)
(4.65657 6.21307e-14 0)
(4.65657 7.14857e-14 0)
(4.65657 4.58112e-14 0)
(4.65657 2.93551e-14 0)
(4.65657 3.18722e-15 0)
(4.65657 -3.95968e-14 0)
(4.65657 -8.31604e-14 0)
(4.65657 3.89067e-15 0)
(4.65657 7.63132e-15 0)
(4.65657 1.89066e-14 0)
(4.65657 -1.44125e-14 0)
(4.65657 -2.55577e-14 0)
(4.65657 -1.929e-14 0)
(4.65657 -6.56413e-14 0)
(4.65657 -7.71e-14 0)
(4.65657 -6.80551e-14 0)
(4.65657 -2.18104e-14 0)
(4.65657 7.41795e-15 0)
(4.65657 -1.84599e-14 0)
(4.65657 -5.67431e-14 0)
(4.65657 -5.95369e-14 0)
(4.65657 -8.19708e-14 0)
(4.65657 -1.11123e-13 0)
(4.65657 -6.30476e-14 0)
(4.65657 -5.76766e-16 0)
(4.65657 7.54864e-14 0)
(4.65657 -3.38058e-15 0)
(4.65657 -7.97971e-14 0)
(4.65657 -4.6518e-14 0)
(4.65657 -2.72147e-14 0)
(4.65657 4.42743e-15 0)
(4.65657 -6.22774e-15 0)
(4.65657 -2.78615e-14 0)
(4.65657 3.16021e-14 0)
(4.65657 5.07721e-14 0)
(4.65657 4.50311e-14 0)
(4.65657 6.55246e-14 0)
(4.65657 5.26624e-14 0)
(4.65657 1.3769e-14 0)
(4.65657 1.47792e-14 0)
(4.65657 1.45425e-14 0)