/*--------------------------------*- C++ -*----------------------------------*\
| =========                 |                                                 |
| \\      /  F ield         | OpenFOAM: The Open Source CFD Toolbox           |
|  \\    /   O peration     | Version:  2206                                  |
|   \\  /    A nd           | Website:  www.openfoam.com                      |
|    \\/     M anipulation  |                                                 |
\*---------------------------------------------------------------------------*/
FoamFile
{
    version     2.0;
    format      ascii;
    arch        "LSB;label=32;scalar=64";
    class       volScalarField;
    location    "0.1";
    object      T;
}
// * * * * * * * * * * * * * * * * * * * * * * * * * * * * * * * * * * * * * //

dimensions      [0 0 0 1 0 0 0];

internalField   nonuniform List<scalar> 
4800
(
1
1
1
1
1
1
1
1
1
1
1
1
1
1
1
1
1
1
1
1
1
1
1
1
1
1
1
1
1
1
1
1
1
1
1
1
1
1
1
1
1
1
1
1
1
1
1
1
1
1
1
1
1
1
1
1
1
1
1
1
1
1
1
1
1
1
1
1
1
1
1
1
1
1
1
1
1
1
1
1
1
1
1
1
1
1
1
1
1
1
1
1
1
1
1
1
1
1
1
1
1
1
1
1
1
1
1
1
1
1
1
1
1
1
1
1
1
1
1
1
1
1
1
1
1
1
1
1
1
1
1
1
1
1
1
1
1
1
1
1
1
1
1
1
1
1
1
1
1
1
1
1
1
1
1
1
1
1
1
1
1
1
1
1
1
1
1
1
1
1
1
1
1
1
1
1
1
1
1
1
1
1
1
1
1
1
1
1
1
1
1
1
1
1
1
1
1
1
1
1
1
1
1
1
1
1
1
1
1
1
1
1
1
1
1
1
1
1
1
1
1
1
1
1
1
1
1
1
1
1
1
1
1
1
1
1
1
1
1
1
1
1
1
1
1
1
1
1
1
1
1
1
1
1
1
1
1
1
1
1
1
1
1
1
1
1
1
1
1
1
1
1
1
1
1
1
1
1
1
1
1
1
1
1
1
1
1
1
1
1
1
1
1
1
1
1
1
1
1
1
1
1
1
1
1
1
1
1
1
1
1
1
1
1
1
1
1
1
1
1
1
1
1
1
1
1
1
1
1
1
1
1
1
1
1
1
1
1
1
1
1
1
1
1
1
1
1
1
1
1
1
1
1
1
1
1
1
1
1
1
1
1
1
1
1
1
1
1
1
1
1
1
1
1
1
1
1
1
1
1
1
1
1
1
1
1
1
1
1
1
1
1
1
1
1
1
1
1
1
1
1
1
1
1
1
1
1
1
1
1
1
1
1
1
1
1
1
1
1
1
1
1
1
1
1
1
1
1
1
1
1
1
1
1
1
1
1
1
1
1
1
1
1
1
1
1
1
1
1
1
1
1
1
1
1
1
1
1
1
1
1
1
1
1
1
1
1
1
1
1
1
1
1
1
1
1
1
1
1
1
1
1
1
1
1
1
1
1
1
1
1
1
1
1
1
1
1
1
1
1
1
1
1
1
1
1
1
1
1
1
1
1
1
1
1
1
1
1
1
1
1
1
1
1
1
1
1
1
1
1
1
1
1
1
1
1
1
1
1
1
1
1
1
1
1
1
1
1
1
1
1
1
1
1
1
1
1
1
1
1
1
1
1
1
1
1
1
1
1
1
1
1
1
1
1
1
1
1
1
1
1
1
1
1
1
1
1
1
1
1
1
1
1
1
1
1
1
1
1
1
1
1
1
1
1
1
1
1
1
1
1
1
1
1
1
1
1
1
1
1
1
1
1
1
1
1
1
1
1
1
1
1
1
1
1
1
1
1
1
1
1
1
1
1
1
1
1
1
1
1
1
1
1
1
1
1
1
1
1
1
1
1
1
1
1
1
1
1
1
1
1
1
1
1
1
1
1
1
1
1
1
1
1
1
1
1
1
1
1
1
1
1
1
1
1
1
1
1
1
1
1
1
1
1
1
1
1
1
1
1
1
1
1
1
1
1
1
1
1
1
1
1
1
1
1
1
1
1
1
1
1
1
1
1
1
1
1
1
1
1
1
1
1
1
1
1
1
1
1
1
1
1
1
1
1
1
1
1
1
1
1
1
1
1
1
1
1
1
1
1
1
1
1
1
1
1
1
1
1
1
1
1
1
1
1
1
1
1
1
1
1
1
1
1
1
1
1
1
1
1
1
1
1
1
1
1
1
1
1
1
1
1
1
1
1
1
1
1
1
1
1
1
1
1
1
1
1
1
1
1
1
1
1
1
1
1
1
1
1
1
1
1
1
1
1
1
1
1
1
1
1
1
1
1
1
1
1
1
1
1
1
1
1
1
1
1
1
1
1
1
1
1
1
1
1
1
1
1
1
1
1
1
1
1
1
1
1
1
1
1
1
1
1
1
1
1
1
1
1
1
1
1
1
1
1
1
1
1
1
1
1
1
1
1
1
1
1
1
1
1
1
1
1
1
1
1
1
1
1
1
1
1
1
1
1
1
1
1
1
1
1
1
1
1
1
1
1
1
1
1
1
1
1
1
1
1
1
1
1
1
1
1
1
1
1
1
1
1
1
1
1
1
1
1
1
1
1
1
1
1
1
1
1
1
1
1
1
1
1
1
1
1
1
1
1
1
1
1
1
1
1
1
1
1
1
1
1
1
1
1
1
1
1
1
1
1
1
1
1
1
1
1
1
1
1
1
1
1
1
1
1
1
1
1
1
1
1
1
1
1
1
1
1
1
1
1
1
1
1
1
1
1
1
1
1
1
1
1
1
1
1
1
1
1
1
1
1
1
1
1
1
1
1
1
1
1
1
1
1
1
1
1
1
1
1
1
1
1
1
1
1
1
1
1
1
1
1
1
1
1
1
1
1
1
1
1
1
1
1
1
1
1
1
1
1
1
1
1
1
1
1
1
1
1
1
1
1
1
1
1
1
1
1
1
1
1
1
1
1
1
1
1
1
1
1
1
1
1
1
1
1
1
1
1
1
1
1
1
1
1
1
1
1
1
1
1
1
1
1
1
1
1
1
1
1
1
1
1
1
1
1
1
1
1
1
1
1
1
1
1
1
1
1
1
1
1
1
1
1
1
1
1
1
1
1
1
1
1
1
1
1
1
1
1
1
1
1
1
1
1
1
1
1
1
1
1
1
1
1
1
1
1
1
1
1
1
1
1
1
1
1
1
1
1
1
1
1
1
1
1
1
1
1
1
1
1
1
1
1
1
1
1
1
1
1
1
1
1
1
1
1
1
1
1
1
1
1
1
1
1
1
1
1
1
1
1
1
1
1
1
1
1
1
1
1
1
1
1
1
1
1
1
1
1
1
1
1
1
1
1
1
1
1
1
1
1
1
1
1
1
1
1
1
1
1
1
1
1
1
1
1
1
1
1
1
1
1
1
1
1
1
1
1
1
1
1
1
1
1
1
1
1
1
1
1
1
1
1
1
1
1
1
1
1
1
1
1
1
1
1
1
1
1
1
1
1
1
1
1
1
1
1
1
1
1
1
1
1
1
1
1
1
1
1
1
1
1
1
1
1
1
1
1
1
1
1
1
1
1
1
1
1
1
1
1
1
1
1
1
1
1
1
1
1
1
1
1
1
1
1
1
1
1
1
1
1
1
1
1
1
1
1
1
1
1
1
1
1
1
1
1
1
1
1
1
1
1
1
1
1
1
1
1
1
1
1
1
1
1
1
1
1
1
1
1
1
1
1
1
1
1
1
1
1
1
1
1
1
1
1
1
1
1
1
1
1
1
1
1
1
1
1
1
1
1
1
1
1
1
1
1
1
1
1
1
1
1
1
1
1
1
1
1
1
1
1
1
1
1
1
1
1
1
1
1
1
1
1
1
1
1
1
1
1
1
1
1
1
1
1
1
1
1
1
1
1
1
1
1
1
1
1
1
1
1
1
1
1
1
1
1
1
1
1
1
1
1
1
1
1
1
1
1
1
1
1
1
1
1
1
1
1
1
1
1
1
1
1
1
1
1.07215
1.16636
1.2648
1.35705
1.43264
1.50928
1.60279
1.65247
1.67753
1.71597
1.74022
1.7369
1.71849
1.68893
1.65582
1.62138
1.58668
1.56078
1.55289
1.55093
1.54968
1.55031
1.55576
1.56369
1.57356
1.57883
1.57935
1.57883
1.57774
1.57825
1.57989
1.58155
1.58217
1.58205
1.58271
1.58474
1.58617
1.58715
1.58785
1.58807
1.58828
1.58836
1.58817
1.58721
1.58489
1.58255
1.58197
1.58235
1.58379
1.5862
1.58931
1.59186
1.59309
1.59333
1.59303
1.59179
1.5901
1.58894
1.58784
1.58705
1.58693
1.58722
1.58796
1.58877
1.58932
1.58955
1.58964
1.58967
1.58931
1.58847
1.58723
1.58523
1.58228
1.57889
1.57553
1.57242
1.57084
1.57045
1.57031
1.5699
0.999889
1.00137
1.00758
1.03124
1.08285
1.13017
1.19017
1.28156
1.34171
1.39768
1.45516
1.49421
1.52594
1.54264
1.58147
1.60934
1.60231
1.60632
1.60599
1.60281
1.5968
1.58802
1.58371
1.57951
1.5777
1.57705
1.57783
1.57861
1.58007
1.58314
1.58655
1.58731
1.58693
1.58591
1.58493
1.58502
1.58559
1.58622
1.5871
1.5889
1.59075
1.59118
1.59114
1.59075
1.58989
1.58885
1.58823
1.58818
1.58872
1.58974
1.59038
1.59066
1.59093
1.59114
1.59086
1.59044
1.59046
1.59052
1.59088
1.59134
1.5918
1.59225
1.59274
1.59301
1.59296
1.59254
1.59171
1.59074
1.58954
1.5881
1.5863
1.58391
1.58075
1.57737
1.57409
1.57145
1.57054
1.57021
1.57009
1.57002
1
1
1
1
1
0.999865
1.00042
1.00682
1.02814
1.06729
1.15573
1.25498
1.37684
1.50395
1.6017
1.64951
1.65654
1.6594
1.65879
1.65308
1.64194
1.62765
1.60188
1.59149
1.5869
1.58753
1.5878
1.58938
1.59352
1.59734
1.59862
1.59828
1.59693
1.59609
1.59554
1.59487
1.59462
1.59403
1.59341
1.59406
1.5963
1.59801
1.59874
1.59903
1.59892
1.59825
1.59787
1.59787
1.59791
1.59783
1.59716
1.59603
1.59494
1.59392
1.59321
1.59298
1.59319
1.5943
1.59626
1.5978
1.59844
1.59868
1.59874
1.59859
1.59813
1.59731
1.59618
1.59492
1.59344
1.59137
1.58901
1.58611
1.58258
1.57911
1.57574
1.57286
1.57163
1.57114
1.57085
1.57075
1
1
1
1
1
1
1
1
1
0.99991
1.00019
1.00384
1.02773
1.12791
1.26825
1.43134
1.52403
1.59667
1.63932
1.63544
1.63255
1.63133
1.6301
1.62802
1.62615
1.62235
1.6146
1.61184
1.61044
1.60898
1.60812
1.60698
1.60691
1.60759
1.60809
1.60881
1.60871
1.60729
1.60487
1.604
1.60441
1.60536
1.60607
1.60693
1.60829
1.60944
1.60966
1.60952
1.6092
1.60842
1.60702
1.60506
1.60312
1.60178
1.60103
1.6007
1.60061
1.60091
1.60197
1.60334
1.60431
1.60479
1.60508
1.6052
1.60501
1.60413
1.60274
1.60112
1.59925
1.59704
1.59441
1.59098
1.58711
1.58366
1.58042
1.57757
1.57595
1.57508
1.57439
1.57335
1
1
1
1
1
1
1
1
1
1
1
1
1
0.999978
1.00268
1.03331
1.13575
1.26152
1.41162
1.51573
1.61301
1.64982
1.6634
1.66213
1.65802
1.65205
1.64163
1.62198
1.61418
1.61451
1.61581
1.6168
1.61666
1.61732
1.61803
1.61785
1.6173
1.61678
1.61524
1.61506
1.61604
1.61612
1.61563
1.61496
1.61501
1.616
1.61722
1.61775
1.61773
1.61695
1.61536
1.61335
1.61185
1.61142
1.61101
1.61062
1.61052
1.61056
1.61074
1.61086
1.61086
1.6108
1.61061
1.61031
1.60987
1.60911
1.60803
1.60691
1.60562
1.60376
1.60102
1.59739
1.59367
1.59053
1.58759
1.58488
1.58289
1.58152
1.58045
1.57879
1
1
1
1
1
1
1
1
1
1
1
1
1
1
0.999999
0.999969
1.00014
1.00303
1.03531
1.13296
1.26543
1.40962
1.51011
1.60119
1.62388
1.63001
1.62486
1.62546
1.62432
1.62561
1.62798
1.62789
1.62606
1.62399
1.62228
1.62016
1.6178
1.61837
1.61904
1.62144
1.62386
1.62359
1.62258
1.62043
1.61874
1.61859
1.61904
1.61976
1.62013
1.62025
1.62029
1.61998
1.61982
1.61987
1.61999
1.62009
1.62007
1.61964
1.61893
1.61821
1.61727
1.61625
1.61519
1.61414
1.61325
1.61259
1.61218
1.61209
1.61139
1.60966
1.6069
1.60331
1.59944
1.59637
1.59381
1.59187
1.59036
1.58927
1.58827
1.5861
1
1
1
1
1
1
1
1
1
1
1
1
1
1
1
1
1
1
0.999971
1.00025
1.00378
1.04164
1.12868
1.26654
1.40344
1.51305
1.59401
1.61701
1.63745
1.63703
1.63444
1.63147
1.62343
1.61438
1.6153
1.61637
1.61677
1.61833
1.62196
1.62363
1.62414
1.62374
1.62197
1.61957
1.61838
1.6183
1.61857
1.61897
1.61933
1.62003
1.62108
1.62216
1.62303
1.62369
1.62412
1.62437
1.62455
1.62444
1.62349
1.62174
1.62012
1.61869
1.6176
1.61702
1.61679
1.61663
1.61657
1.61655
1.61571
1.61389
1.61127
1.60781
1.60361
1.59937
1.59703
1.59587
1.59564
1.59533
1.59446
1.59216
1
1
1
1
1
1
1
1
1
1
1
1
1
1
1
1
1
1
1
0.999999
1
0.999988
1.00031
1.00586
1.05312
1.13739
1.28743
1.41614
1.53343
1.58123
1.60178
1.60651
1.6018
1.6053
1.61271
1.61711
1.6184
1.62078
1.62222
1.62174
1.62088
1.61994
1.61942
1.6191
1.61794
1.6177
1.61812
1.6185
1.61883
1.61926
1.61949
1.61953
1.62017
1.62133
1.62286
1.62422
1.62475
1.62461
1.62409
1.6235
1.62274
1.62183
1.62091
1.62014
1.61974
1.61952
1.61953
1.61956
1.61859
1.61668
1.61408
1.61078
1.60631
1.60063
1.59776
1.59643
1.59622
1.59703
1.59746
1.59606
1
1
1
1
1
1
1
1
1
1
1
1
1
1
1
1
1
1
1
1
1
1
0.999999
0.999996
1.00003
1.0006
1.01122
1.06617
1.16733
1.31857
1.43703
1.53896
1.57546
1.59892
1.61294
1.61516
1.61603
1.6131
1.60925
1.60876
1.6102
1.61185
1.61311
1.61505
1.61803
1.62013
1.62044
1.62014
1.61921
1.61823
1.61735
1.61662
1.61639
1.61675
1.61776
1.61877
1.61969
1.62051
1.62113
1.62149
1.62161
1.62168
1.62179
1.622
1.62206
1.62206
1.62177
1.62099
1.61965
1.61768
1.61513
1.61178
1.60599
1.59959
1.59682
1.59564
1.59522
1.59566
1.59744
1.59776
1
1
1
1
1
1
1
1
1
1
1
1
1
1
1
1
1
1
1
1
1
1
1
1
1
1
0.999991
1.00009
1.00141
1.02302
1.08239
1.19613
1.34869
1.46682
1.55501
1.5724
1.58744
1.58554
1.5881
1.5952
1.60315
1.60648
1.60887
1.61132
1.61398
1.61527
1.61555
1.6164
1.61794
1.61885
1.61841
1.61652
1.61425
1.61304
1.61279
1.61319
1.61405
1.6151
1.61615
1.61723
1.61806
1.61904
1.62026
1.62105
1.62137
1.62133
1.62104
1.62028
1.61869
1.61644
1.61383
1.61087
1.60661
1.60038
1.5962
1.595
1.5946
1.59457
1.59572
1.59754
1
1
1
1
1
1
1
1
1
1
1
1
1
1
1
1
1
1
1
1
1
1
1
1
1
1
1
1
0.999999
1
1.00024
1.00351
1.0398
1.11777
1.26139
1.39724
1.50984
1.55985
1.5772
1.59143
1.59815
1.60016
1.59925
1.59872
1.60005
1.60351
1.60675
1.60914
1.6117
1.61413
1.6152
1.61524
1.61476
1.61376
1.6126
1.61147
1.61092
1.61091
1.61141
1.61252
1.61383
1.61502
1.61629
1.61752
1.61824
1.61839
1.61802
1.61695
1.61493
1.61273
1.61096
1.6088
1.60595
1.60262
1.59886
1.5956
1.59405
1.59389
1.59405
1.59551
1
1
1
1
1
1
1
1
1
1
1
1
1
1
1
1
1
1
1
1
1
1
1
1
1
1
1
1
1
1
1
0.999995
1.00005
1.00081
1.01289
1.07299
1.17358
1.32285
1.44079
1.54167
1.57034
1.57555
1.58832
1.58621
1.58555
1.58791
1.59107
1.59485
1.59992
1.60473
1.60752
1.60841
1.60878
1.6095
1.61034
1.61128
1.61176
1.61176
1.61133
1.61075
1.6107
1.61093
1.61186
1.61321
1.61394
1.61383
1.6132
1.61195
1.60997
1.607
1.60519
1.60451
1.60351
1.60171
1.60023
1.59829
1.59567
1.59311
1.59277
1.59326
1
1
1
1
1
1
1
1
1
1
1
1
1
1
1
1
1
1
1
1
1
1
1
1
1
1
1
1
1
1
1
1
1
1
0.999997
1.00031
1.00286
1.03389
1.11399
1.25079
1.38566
1.49946
1.56745
1.58272
1.58452
1.58877
1.58594
1.58723
1.59064
1.59249
1.59344
1.59434
1.59628
1.59974
1.60395
1.60699
1.60843
1.60895
1.60888
1.60891
1.60908
1.60945
1.60978
1.61015
1.61043
1.61033
1.60963
1.60805
1.60558
1.60235
1.59917
1.59836
1.5982
1.59849
1.59813
1.59726
1.59666
1.59477
1.59139
1.59124
1
1
1
1
1
1
1
1
1
1
1
1
1
1
1
1
1
1
1
1
1
1
1
1
1
1
1
1
1
1
1
1
1
1
1
1
0.999996
1.00007
1.00108
1.01244
1.08081
1.19593
1.34698
1.46226
1.55108
1.58213
1.58673
1.59345
1.59485
1.59074
1.58795
1.58763
1.58821
1.5906
1.59358
1.59613
1.59881
1.60173
1.60384
1.60444
1.60482
1.60563
1.60607
1.6063
1.60674
1.60719
1.60736
1.60674
1.60507
1.60133
1.59561
1.59313
1.59278
1.59255
1.59367
1.59523
1.59498
1.59414
1.59158
1.5886
1
1
1
1
1
1
1
1
1
1
1
1
1
1
1
1
1
1
1
1
1
1
1
1
1
1
1
1
1
1
1
1
1
1
1
1
1
1
0.999999
1
1.00062
1.00562
1.05157
1.16291
1.30643
1.42805
1.5245
1.57815
1.59329
1.59355
1.59573
1.59558
1.59415
1.59258
1.59152
1.5914
1.59231
1.59401
1.59519
1.59649
1.59803
1.59993
1.60108
1.60151
1.6021
1.6028
1.60378
1.60464
1.60447
1.60332
1.59868
1.59075
1.58783
1.58756
1.58763
1.59013
1.59184
1.59195
1.59155
1.58785
1
1
1
1
1
1
1
1
1
1
1
1
1
1
1
1
1
1
1
1
1
1
1
1
1
1
1
1
1
1
1
1
1
1
1
1
1
1
1
1
1
0.999996
1.00029
1.00349
1.02975
1.13763
1.27527
1.40952
1.50369
1.56734
1.58852
1.59331
1.597
1.59896
1.60001
1.59853
1.59619
1.5946
1.59353
1.59354
1.59478
1.59638
1.59664
1.59633
1.59542
1.59468
1.59564
1.59866
1.60137
1.60091
1.59927
1.59439
1.58552
1.58285
1.58309
1.5836
1.58633
1.58855
1.5885
1.58705
1
1
1
1
1
1
1
1
1
1
1
1
1
1
1
1
1
1
1
1
1
1
1
1
1
1
1
1
1
1
1
1
1
1
1
1
1
1
1
1
1
1
1
0.999997
1.0001
1.00276
1.01909
1.11578
1.26891
1.41095
1.49192
1.54976
1.58375
1.59436
1.59726
1.59862
1.59837
1.59777
1.59768
1.59764
1.5984
1.59927
1.59907
1.59726
1.59345
1.59036
1.5889
1.58891
1.59183
1.59771
1.59816
1.59593
1.58935
1.58074
1.57776
1.57756
1.57824
1.58187
1.5858
1.58562
1
1
1
1
1
1
1
1
1
1
1
1
1
1
1
1
1
1
1
1
1
1
1
1
1
1
1
1
1
1
1
1
1
1
1
1
1
1
1
1
1
1
1
1
1
0.999998
1.00004
1.00247
1.01872
1.10206
1.27014
1.4221
1.50244
1.54213
1.57052
1.58768
1.59162
1.59248
1.59427
1.59579
1.59745
1.59956
1.60169
1.60247
1.60082
1.59468
1.58726
1.58576
1.586
1.58961
1.59501
1.59427
1.59108
1.58352
1.57495
1.57345
1.57378
1.57589
1.58131
1.58312
1
1
1
1
1
1
1
1
1
1
1
1
1
1
1
1
1
1
1
1
1
1
1
1
1
1
1
1
1
1
1
1
1
1
1
1
1
1
1
1
1
1
1
1
1
1
1
0.999998
1.00004
1.00209
1.02357
1.10172
1.26915
1.43297
1.53119
1.55746
1.57329
1.57976
1.58281
1.58382
1.58507
1.5887
1.59607
1.60182
1.60304
1.60206
1.5969
1.5875
1.58431
1.58434
1.58601
1.59052
1.58901
1.58507
1.57887
1.57215
1.57112
1.57171
1.57348
1.57772
1
1
1
1
1
1
1
1
1
1
1
1
1
1
1
1
1
1
1
1
1
1
1
1
1
1
1
1
1
1
1
1
1
1
1
1
1
1
1
1
1
1
1
1
1
1
1
1
1
0.999999
1.00008
1.00193
1.02808
1.11641
1.28673
1.45181
1.55101
1.58638
1.58587
1.58382
1.57994
1.57674
1.57863
1.58904
1.60145
1.60398
1.6029
1.59628
1.58495
1.57951
1.57883
1.58117
1.58644
1.58628
1.58357
1.57719
1.56991
1.56807
1.5681
1.57039
1
1
1
1
1
1
1
1
1
1
1
1
1
1
1
1
1
1
1
1
1
1
1
1
1
1
1
1
1
1
1
1
1
1
1
1
1
1
1
1
1
1
1
1
1
1
1
1
1
1
1
0.999999
1.00015
1.00275
1.0361
1.15062
1.33268
1.4761
1.57085
1.59496
1.59473
1.58541
1.57456
1.57702
1.58995
1.60252
1.60405
1.60197
1.59175
1.57919
1.57566
1.57532
1.57963
1.58482
1.58408
1.58161
1.57532
1.56713
1.565
1.56625
1
1
1
1
1
1
1
1
1
1
1
1
1
1
1
1
1
1
1
1
1
1
1
1
1
1
1
1
1
1
1
1
1
1
1
1
1
1
1
1
1
1
1
1
1
1
1
1
1
1
1
1
1
1
1.0003
1.00545
1.05889
1.19324
1.37501
1.52372
1.59227
1.59208
1.58348
1.5759
1.58118
1.59473
1.60365
1.60355
1.59986
1.58837
1.57628
1.57327
1.57277
1.57616
1.58183
1.58171
1.57944
1.57444
1.56752
1.56412
1
1
1
1
1
1
1
1
1
1
1
1
1
1
1
1
1
1
1
1
1
1
1
1
1
1
1
1
1
1
1
1
1
1
1
1
1
1
1
1
1
1
1
1
1
1
1
1
1
1
1
1
1
1
1
1.00001
1.00072
1.01167
1.09674
1.26867
1.44443
1.5731
1.58337
1.57711
1.57394
1.58182
1.59759
1.60478
1.60429
1.59977
1.58724
1.57419
1.57049
1.56972
1.57227
1.57797
1.57904
1.57754
1.57391
1.56628
1
1
1
1
1
1
1
1
1
1
1
1
1
1
1
1
1
1
1
1
1
1
1
1
1
1
1
1
1
1
1
1
1
1
1
1
1
1
1
1
1
1
1
1
1
1
1
1
1
1
1
1
1
1
1
1
0.999999
1.00005
1.00233
1.03177
1.15237
1.35227
1.5284
1.57501
1.56705
1.56822
1.57992
1.59833
1.60495
1.60368
1.59828
1.58688
1.57341
1.56827
1.56717
1.56796
1.57305
1.57545
1.57386
1.56912
1
1
1
1
1
1
1
1
1
1
1
1
1
1
1
1
1
1
1
1
1
1
1
1
1
1
1
1
1
1
1
1
1
1
1
1
1
1
1
1
1
1
1
1
1
1
1
1
1
1
1
1
1
1
1
1
1
1
1
1.00029
1.00769
1.06979
1.25006
1.4515
1.55991
1.56495
1.5669
1.57474
1.59166
1.60097
1.60058
1.59615
1.58743
1.57506
1.56616
1.56421
1.56378
1.56544
1.56936
1.5693
1
1
1
1
1
1
1
1
1
1
1
1
1
1
1
1
1
1
1
1
1
1
1
1
1
1
1
1
1
1
1
1
1
1
1
1
1
1
1
1
1
1
1
1
1
1
1
1
1
1
1
1
1
1
1
1
1
1
1
1
1.00003
1.00149
1.02597
1.14457
1.3621
1.53267
1.56482
1.56355
1.56983
1.58199
1.59404
1.5953
1.59223
1.58597
1.57692
1.56622
1.56032
1.55944
1.56068
1.56509
1
1
1
1
1
1
1
1
1
1
1
1
1
1
1
1
1
1
1
1
1
1
1
1
1
1
1
1
1
1
1
1
1
1
1
1
1
1
1
1
1
1
1
1
1
1
1
1
1
1
1
1
1
1
1
1
1
1
1
1
1
1
1.00024
1.00775
1.07323
1.27283
1.47421
1.55969
1.56425
1.56702
1.5704
1.57922
1.58628
1.58644
1.58298
1.57689
1.56794
1.55902
1.55641
1.55666
1
1
1
1
1
1
1
1
1
1
1
1
1
1
1
1
1
1
1
1
1
1
1
1
1
1
1
1
1
1
1
1
1
1
1
1
1
1
1
1
1
1
1
1
1
1
1
1
1
1
1
1
1
1
1
1
1
1
1
1
1
1
1
1.00004
1.00206
1.03404
1.18307
1.3985
1.54601
1.57212
1.56275
1.56079
1.56493
1.57367
1.57936
1.57875
1.57511
1.56828
1.55855
1.55311
1
1
1
1
1
1
1
1
1
1
1
1
1
1
1
1
1
1
1
1
1
1
1
1
1
1
1
1
1
1
1
1
1
1
1
1
1
1
1
1
1
1
1
1
1
1
1
1
1
1
1
1
1
1
1
1
1
1
1
1
1
1
1
1
1
1.00049
1.01462
1.10835
1.32552
1.50037
1.57086
1.57116
1.55941
1.55719
1.56042
1.57029
1.57417
1.57291
1.56777
1.55678
1
1
1
1
1
1
1
1
1
1
1
1
1
1
1
1
1
1
1
1
1
1
1
1
1
1
1
1
1
1
1
1
1
1
1
1
1
1
1
1
1
1
1
1
1
1
1
1
1
1
1
1
1
1
1
1
1
1
1
1
1
1
1
1
1
1
1.00013
1.00511
1.06416
1.24527
1.45626
1.55983
1.56765
1.55999
1.54966
1.55205
1.56254
1.57023
1.56971
1.56324
1
1
1
1
1
1
1
1
1
1
1
1
1
1
1
1
1
1
1
1
1
1
1
1
1
1
1
1
1
1
1
1
1
1
1
1
1
1
1
1
1
1
1
1
1
1
1
1
1
1
1
1
1
1
1
1
1
1
1
1
1
1
1
1
1
1
1
1.00003
1.00167
1.03661
1.18102
1.38693
1.53244
1.5627
1.56135
1.54827
1.54816
1.55581
1.56643
1.56567
1
1
1
1
1
1
1
1
1
1
1
1
1
1
1
1
1
1
1
1
1
1
1
1
1
1
1
1
1
1
1
1
1
1
1
1
1
1
1
1
1
1
1
1
1
1
1
1
1
1
1
1
1
1
1
1
1
1
1
1
1
1
1
1
1
1
1
1
1.00001
1.00071
1.016
1.12423
1.31886
1.49568
1.55755
1.5577
1.5442
1.54209
1.55127
1.56244
1
1
1
1
1
1
1
1
1
1
1
1
1
1
1
1
1
1
1
1
1
1
1
1
1
1
1
1
1
1
1
1
1
1
1
1
1
1
1
1
1
1
1
1
1
1
1
1
1
1
1
1
1
1
1
1
1
1
1
1
1
1
1
1
1
1
1
1
1
1
1.00022
1.00686
1.078
1.26281
1.45453
1.54783
1.55063
1.54051
1.53815
1.54923
1
1
1
1
1
1
1
1
1
1
1
1
1
1
1
1
1
1
1
1
1
1
1
1
1
1
1
1
1
1
1
1
1
1
1
1
1
1
1
1
1
1
1
1
1
1
1
1
1
1
1
1
1
1
1
1
1
1
1
1
1
1
1
1
1
1
1
1
1
1
1
1.00006
1.00308
1.04813
1.20272
1.39709
1.52778
1.54702
1.53809
1.54005
1
1
1
1
1
1
1
1
1
1
1
1
1
1
1
1
1
1
1
1
1
1
1
1
1
1
1
1
1
1
1
1
1
1
1
1
1
1
1
1
1
1
1
1
1
1
1
1
1
1
1
1
1
1
1
1
1
1
1
1
1
1
1
1
1
1
1
1
1
1
1
1
1.00002
1.00134
1.02374
1.14607
1.34347
1.50652
1.53807
1.53928
1
1
1
1
1
1
1
1
1
1
1
1
1
1
1
1
1
1
1
1
1
1
1
1
1
1
1
1
1
1
1
1
1
1
1
1
1
1
1
1
1
1
1
1
1
1
1
1
1
1
1
1
1
1
1
1
1
1
1
1
1
1
1
1
1
1
1
1
1
1
1
1
1
1
1.00044
1.0117
1.102
1.2954
1.46181
1.53217
1
1
1
1
1
1
1
1
1
1
1
1
1
1
1
1
1
1
1
1
1
1
1
1
1
1
1
1
1
1
1
1
1
1
1
1
1
1
1
1
1
1
1
1
1
1
1
1
1
1
1
1
1
1
1
1
1
1
1
1
1
1
1
1
1
1
1
1
1
1
1
1
1
1
1
1.00016
1.00555
1.06779
1.23698
1.4687
1
1
1
1
1
1
1
1
1
1
1
1
1
1
1
1
1
1
1
1
1
1
1
1
1
1
1
1
1
1
1
1
1
1
1
1
1
1
1
1
1
1
1
1
1
1
1
1
1
1
1
1
1
1
1
1
1
1
1
1
1
1
1
1
1
1
1
1
1
1
1
1
1
1
1
1
1.00005
1.00314
1.0355
1.32092
1
1
1
1
1
1
1
1
1
1
1
1
1
1
1
1
1
1
1
1
1
1
1
1
1
1
1
1
1
1
1
1
1
1
1
1
1
1
1
1
1
1
1
1
1
1
1
1
1
1
1
1
1
1
1
1
1
1
1
1
1
1
1
1
1
1
1
1
1
1
1
1
1
1
1
1
1
1.00003
1.00113
1.1116
1
1
1
1
1
1
1
1
1
1
1
1
1
1
1
1
1
1
1
1
1
1
1
1
1
1
1
1
1
1
1
1
1
1
1
1
1
1
1
1
1
1
1
1
1
1
1
1
1
1
1
1
1
1
1
1
1
1
1
1
1
1
1
1
1
1
1
1
1
1
1
1
1
1
1
1
1
1
1.00001
1.01603
)
;

boundaryField
{
    inlet
    {
        type            fixedValue;
        value           uniform 1;
    }
    outlet
    {
        type            zeroGradient;
    }
    bottom
    {
        type            symmetryPlane;
    }
    top
    {
        type            symmetryPlane;
    }
    obstacle
    {
        type            zeroGradient;
    }
    defaultFaces
    {
        type            empty;
    }
}


// ************************************************************************* //
