/*--------------------------------*- C++ -*----------------------------------*\
| =========                 |                                                 |
| \\      /  F ield         | OpenFOAM: The Open Source CFD Toolbox           |
|  \\    /   O peration     | Version:  2206                                  |
|   \\  /    A nd           | Website:  www.openfoam.com                      |
|    \\/     M anipulation  |                                                 |
\*---------------------------------------------------------------------------*/
FoamFile
{
    version     2.0;
    format      ascii;
    arch        "LSB;label=32;scalar=64";
    class       volScalarField;
    location    "0.18";
    object      T;
}
// * * * * * * * * * * * * * * * * * * * * * * * * * * * * * * * * * * * * * //

dimensions      [0 0 0 1 0 0 0];

internalField   nonuniform List<scalar> 
4800
(
1
1
1
1
1
1
1
1
1
1
1
1
1
1
1
1
1
1
1
1
1
1
1
1
1
1
1
1
1
1
1
1
1
1
1
1
1
1
1
1
1
1
1
1
1
1
1
1
1
1
1
1
1
1
1
1
1
1
1
1
1
1
1
1
1
1
1
1
1
1
1
1
1
1
1
1
1
1
1
1
1
1
1
1
1
1
1
1
1
1
1
1
1
1
1
1
1
1
1
1
1
1
1
1
1
1
1
1
1
1
1
1
1
1
1
1
1
1
1
1
1
1
1
1
1
1
1
1
1
1
1
1
1
1
1
1
1
1
1
1
1
1
1
1
1
1
1
1
1
1
1
1
1
1
1
1
1
1
1
1
1
1
1
1
1
1
1
1
1
1
1
1
1
1
1
1
1
1
1
1
1
1
1
1
1
1
1
1
1
1
1
1
1
1
1
1
1
1
1
1
1
1
1
1
1
1
1
1
1
1
1
1
1
1
1
1
1
1
1
1
1
1
1
1
1
1
1
1
1
1
1
1
1
1
1
1
1
1
1
1
1
1
1
1
1
1
1
1
1
1
1
1
1
1
1
1
1
1
1
1
1
1
1
1
1
1
1
1
1
1
1
1
1
1
1
1
1
1
1
1
1
1
1
1
1
1
1
1
1
1
1
1
1
1
1
1
1
1
1
1
1
1
1
1
1
1
1
1
1
1
1
1
1
1
1
1
1
1
1
1
1
1
1
1
1
1
1
1
1
1
1
1
1
1
1
1
1
1
1
1
1
1
1
1
1
1
1
1
1
1
1
1
1
1
1
1
1
1
1
1
1
1
1
1
1
1
1
1
1
1
1
1
1
1
1
1
1
1
1
1
1
1
1
1
1
1
1
1
1
1
1
1
1
1
1
1
1
1
1
1
1
1
1
1
1
1
1
1
1
1
1
1
1
1
1
1
1
1
1
1
1
1
1
1
1
1
1
1
1
1
1
1
1
1
1
1
1
1
1
1
1
1
1
1
1
1
1
1
1
1
1
1
1
1
1
1
1
1
1
1
1
1
1
1
1
1
1
1
1
1
1
1
1
1
1
1
1
1
1
1
1
1
1
1
1
1
1
1
1
1
1
1
1
1
1
1
1
1
1
1
1
1
1
1
1
1
1
1
1
1
1
1
1
1
1
1
1
1
1
1
1
1
1
1
1
1
1
1
1
1
1
1
1
1
1
1
1
1
1
1
1
1
1
1
1
1
1
1
1
1
1
1
1
1
1
1
1
1
1
1
1
1
1
1
1
1
1
1
1
1
1
1
1
1
1
1
1
1
1
1
1
1
1
1
1
1
1
1
1
1
1
1
1
1
1
1
1
1
1
1
1
1
1
1
1
1
1
1
1
1
1
1
1
1
1
1
1
1
1
1
1
1
1
1
1
1
1
1
1
1
1
1
1
1
1
1
1
1
1
1
1
1
1
1
1
1
1
1
1
1
1
1
1
1
1
1
1
1
1
1
1
1
1
1
1
1
1
1
1
1
1
1
1
1
1
1
1
1
1
1
1
1
1
1
1
1
1
1
1
1
1
1
1
1
1
1
1
1
1
1
1
1
1
1
1
1
1
1
1
1
1
1
1
1
1
1
1
1
1
1
1
1
1
1
1
1
1
1
1
1
1
1
1
1
1
1
1
1
1
1
1
1
1
1
1
1
1
1
1
1
1
1
1
1
1
1
1
1
1
1
1
1
1
1
1
1
1
1
1
1
1
1
1
1
1
1
1
1
1
1
1
1
1
1
1
1
1
1
1
1
1
1
1
1
1
1
1
1
1
1
1
1
1
1
1
1
1
1
1
1
1
1
1
1
1
1
1
1
1
1
1
1
1
1
1
1
1
1
1
1
1
1
1
1
1
1
1
1
1
1
1
1
1
1
1
1
1
1
1
1
1
1
1
1
1
1
1
1
1
1
1
1
1
1
1
1
1
1
1
1
1
1
1
1
1
1
1
1
1
1
1
1
1
1
1
1
1
1
1
1
1
1
1
1
1
1
1
1
1
1
1
1
1
1
1
1
1
1
1
1
1
1
1
1
1
1
1
1
1
1
1
1
1
1
1
1
1
1
1
1
1
1
1
1
1
1
1
1
1
1
1
1
1
1
1
1
1
1
1
1
1
1
1
1
1
1
1
1
1
1
1
1
1
1
1
1
1
1
1
1
1
1
1
1
1
1
1
1
1
1
1
1
1
1
1
1
1
1
1
1
1
1
1
1
1
1
1
1
1
1
1
1
1
1
1
1
1
1
1
1
1
1
1
1
1
1
1
1
1
1
1
1
1
1
1
1
1
1
1
1
1
1
1
1
1
1
1
1
1
1
1
1
1
1
1
1
1
1
1
1
1
1
1
1
1
1
1
1
1
1
1
1
1
1
1
1
1
1
1
1
1
1
1
1
1
1
1
1
1
1
1
1
1
1
1
1
1
1
1
1
1
1
1
1
1
1
1
1
1
1
1
1
1
1
1
1
1
1
1
1
1
1
1
1
1
1
1
1
1
1
1
1
1
1
1
1
1
1
1
1
1
1
1
1
1
1
1
1
1
1
1
1
1
1
1
1
1
1
1
1
1
1
1
1
1
1
1
1
1
1
1
1
1
1
1
1
1
1
1
1
1
1
1
1
1
1
1
1
1
1
1
1
1
1
1
1
1
1
1
1
1
1
1
1
1
1
1
1
1
1
1
1
1
1
1
1
1
1
1
1
1
1
1
1
1
1
1
1
1
1
1
1
1
1
1
1
1
1
1
1
1
1
1
1
1
1
1
1
1
1
1
1
1
1
1
1
1
1
1
1
1
1
1
1
1
1
1
1
1
1
1
1
1
1
1
1
1
1
1
1
1
1
1
1
1
1
1
1
1
1
1
1
1
1
1
1
1
1
1
1
1
1
1
1
1
1
1
1
1
1
1
1
1
1
1
1
1
1
1
1
1
1
1
1
1
1
1
1
1
1
1
1
1
1
1
1
1
1
1
1
1
1
1
1
1
1
1
1
1
1
1
1
1
1
1
1
1
1
1
1
1
1
1
1
1
1
1
1
1
1
1
1
1
1
1
1
1
1
1
1
1
1
1
1
1
1
1
1
1
1
1
1
1
1
1
1
1
1
1
1
1
1
1
1
1
1
1
1
1
1
1
1
1
1
1
1
1
1
1
1
1
1
1
1
1
1
1
1
1
1
1
1
1
1
1
1
1
1
1
1
1
1
1
1
1
1
1
1
1
1
1
1
1
1
1
1
1
1
1
1
1
1
1
1
1
1
1
1
1
1
1
1
1
1
1
1
1
1
1
1
1
1
1
1
1
1
1
1
1
1
1
1
1
1
1
1
1
1
1
1
1
1
1
1
1
1
1
1
1
1
1
1
1
1
1
1
1
1
1
1
1
1
1
1
1
1
1
1
1
1
1
1
1
1
1
1
1
1
1
1
1
1
1
1
1
1
1
1
1
1
1
1
1
1
1
1
1
1
1
1
1
1
1
1
1
1
1
1
1
1
1
1
1
1
1
1
1
1
1
1
1
1
1
1
1
1
1
1
1
1
1
1
1
1
1
1
1
1
1
1
1
1
1
1
1
1
1
1
1
1
1.07155
1.16519
1.26658
1.3583
1.43367
1.5146
1.61126
1.67301
1.70462
1.74383
1.78832
1.79323
1.78248
1.75963
1.73245
1.69913
1.66398
1.63191
1.59875
1.59083
1.58951
1.58779
1.58849
1.59346
1.60222
1.61263
1.61715
1.61993
1.62
1.61911
1.61939
1.62157
1.62447
1.62644
1.62635
1.62558
1.62483
1.62559
1.62781
1.63037
1.63208
1.63214
1.63193
1.63165
1.63108
1.62962
1.62769
1.62649
1.62605
1.62645
1.62809
1.63007
1.63177
1.63304
1.63408
1.63506
1.63583
1.63602
1.63581
1.6352
1.63435
1.63302
1.63179
1.63097
1.63059
1.63057
1.63082
1.63149
1.63243
1.63354
1.63488
1.63585
1.63641
1.63682
1.63719
1.63745
1.63752
1.63743
1.63728
1.63684
0.999994
1.00012
1.00188
1.02344
1.06949
1.11091
1.16892
1.26137
1.3378
1.38396
1.45051
1.50636
1.53604
1.5714
1.58909
1.61455
1.65362
1.65326
1.64999
1.64989
1.6495
1.64294
1.63151
1.62732
1.62309
1.61879
1.61553
1.61652
1.61852
1.62088
1.62376
1.62695
1.62951
1.63068
1.63056
1.62987
1.62824
1.62788
1.62863
1.62959
1.63083
1.63264
1.63417
1.6346
1.63455
1.63388
1.63333
1.63337
1.63309
1.63303
1.63323
1.63323
1.63289
1.63267
1.63259
1.63302
1.63413
1.63535
1.63621
1.63647
1.63647
1.63656
1.63652
1.63632
1.63586
1.63552
1.63534
1.63536
1.63555
1.63565
1.63547
1.6354
1.63538
1.63548
1.63576
1.63615
1.63668
1.63718
1.6375
1.63749
1
1
1
1
0.999998
1
0.999736
1.00136
1.01223
1.03829
1.08782
1.19495
1.30291
1.42941
1.5603
1.63997
1.70862
1.71557
1.70957
1.70564
1.70154
1.69377
1.67995
1.65582
1.63978
1.62704
1.62667
1.62815
1.63067
1.63396
1.63804
1.64093
1.64222
1.64232
1.64223
1.64173
1.6406
1.63922
1.63914
1.63887
1.63839
1.63864
1.63982
1.64108
1.64212
1.64299
1.64348
1.64339
1.64353
1.64351
1.64325
1.64237
1.64108
1.63952
1.63811
1.63753
1.63754
1.63773
1.63849
1.63975
1.64105
1.64214
1.64273
1.64278
1.64259
1.6422
1.64186
1.64161
1.64138
1.64091
1.64011
1.63913
1.63853
1.63821
1.63798
1.63782
1.63776
1.63803
1.63874
1.63906
1
1
1
1
1
1
1
1
1
1
0.999905
1.00012
1.00551
1.0346
1.14968
1.29863
1.46373
1.57568
1.6286
1.68711
1.68897
1.6843
1.68639
1.68691
1.6819
1.67273
1.66647
1.66253
1.65993
1.65594
1.65153
1.64856
1.64959
1.6519
1.65391
1.65497
1.65576
1.65636
1.65609
1.65488
1.65274
1.65078
1.6499
1.65007
1.65035
1.65097
1.65225
1.65402
1.65576
1.65641
1.65614
1.65482
1.65246
1.64979
1.64752
1.6465
1.64625
1.64607
1.64603
1.64595
1.64611
1.64686
1.64779
1.64879
1.64967
1.65002
1.64994
1.64952
1.64896
1.64818
1.6469
1.64532
1.64425
1.64363
1.64313
1.64283
1.64272
1.6428
1.64289
1.64278
1
1
1
1
1
1
1
1
1
1
1
1
1
1
0.99976
1.0026
1.02793
1.144
1.27925
1.42593
1.54848
1.62565
1.70339
1.71505
1.71303
1.71103
1.7054
1.69812
1.68893
1.67354
1.65965
1.65565
1.65748
1.6618
1.66444
1.66545
1.66645
1.66657
1.66658
1.66628
1.6658
1.66416
1.66243
1.66229
1.66177
1.66044
1.65989
1.66027
1.66162
1.663
1.66379
1.66376
1.66281
1.6615
1.6603
1.65952
1.65893
1.65808
1.65698
1.65611
1.65543
1.65504
1.65476
1.65466
1.65475
1.65494
1.65502
1.65508
1.65503
1.65477
1.65416
1.65309
1.65226
1.65192
1.65161
1.65123
1.65089
1.65058
1.65023
1.64954
1
1
1
1
1
1
1
1
1
1
1
1
1
1
1
1
1
0.999873
1.00236
1.02222
1.12544
1.25779
1.40725
1.52642
1.60486
1.67408
1.68399
1.68324
1.68556
1.68186
1.67269
1.66951
1.67075
1.67132
1.67079
1.66911
1.66781
1.6655
1.66573
1.66756
1.6695
1.67015
1.67195
1.67177
1.67017
1.66828
1.66639
1.6652
1.66481
1.6649
1.66566
1.66686
1.66812
1.66891
1.6694
1.66943
1.66917
1.66871
1.66789
1.66656
1.66508
1.66358
1.66239
1.66147
1.66069
1.66006
1.65976
1.65964
1.65963
1.65981
1.66018
1.66037
1.66031
1.66025
1.66026
1.66011
1.65985
1.6594
1.65883
1.6576
1
1
1
1
1
1
1
1
1
1
1
1
1
1
1
1
1
1
1
1
0.999937
1.00203
1.02041
1.11646
1.24012
1.38907
1.50677
1.59883
1.66965
1.6784
1.68443
1.6856
1.68361
1.67966
1.67116
1.66153
1.65765
1.65799
1.66102
1.66464
1.66894
1.67339
1.67522
1.67546
1.67445
1.67093
1.66804
1.66628
1.66563
1.66583
1.66625
1.6663
1.66694
1.66879
1.67099
1.67257
1.67339
1.67352
1.67299
1.67189
1.6704
1.66865
1.66723
1.66597
1.665
1.66436
1.66425
1.66432
1.66434
1.6643
1.66442
1.66483
1.66513
1.66547
1.66588
1.66612
1.6661
1.66572
1.66522
1.66398
1
1
1
1
1
1
1
1
1
1
1
1
1
1
1
1
1
1
1
1
1
0.999998
0.999998
1.00003
1.00199
1.0219
1.11794
1.23698
1.38669
1.49873
1.59343
1.65423
1.65867
1.66194
1.66365
1.65847
1.65414
1.65514
1.659
1.66265
1.66496
1.66777
1.66972
1.67064
1.67093
1.67161
1.67195
1.67083
1.66925
1.66837
1.66729
1.66652
1.66629
1.66661
1.6674
1.66847
1.66988
1.67091
1.6713
1.67149
1.67165
1.67164
1.67121
1.67061
1.6699
1.66921
1.66876
1.66872
1.66845
1.66825
1.66818
1.66819
1.6683
1.66858
1.66884
1.66893
1.66875
1.66826
1.6678
1.66684
1
1
1
1
1
1
1
1
1
1
1
1
1
1
1
1
1
1
1
1
1
1
1
1
0.999999
0.999974
1.00016
1.00257
1.02825
1.12589
1.24974
1.39821
1.50174
1.60065
1.64149
1.65231
1.65772
1.66072
1.65994
1.65813
1.65514
1.65216
1.65188
1.65562
1.6612
1.66475
1.66669
1.66883
1.67138
1.67191
1.67144
1.66964
1.66683
1.66427
1.66359
1.66363
1.66443
1.66525
1.66577
1.66643
1.66744
1.66878
1.67009
1.67098
1.67122
1.67137
1.6719
1.67222
1.67204
1.67113
1.66963
1.66889
1.66913
1.66914
1.669
1.66869
1.66838
1.668
1.66757
1.66719
1
1
1
1
1
1
1
1
1
1
1
1
1
1
1
1
1
1
1
1
1
1
1
1
1
1
1
1
0.999974
1.00034
1.00393
1.04045
1.13945
1.26453
1.40664
1.51062
1.60732
1.64304
1.64155
1.64695
1.64801
1.64233
1.63993
1.64122
1.6448
1.64934
1.65454
1.66027
1.66427
1.66615
1.66742
1.66823
1.66835
1.66709
1.66393
1.662
1.66113
1.66091
1.66137
1.6622
1.66318
1.66437
1.66543
1.66684
1.66829
1.66934
1.67036
1.67095
1.67091
1.67045
1.66981
1.66928
1.66852
1.66828
1.66831
1.66837
1.66829
1.66802
1.66769
1.66763
1
1
1
1
1
1
1
1
1
1
1
1
1
1
1
1
1
1
1
1
1
1
1
1
1
1
1
1
0.999999
1
0.999998
0.999994
1.00067
1.00623
1.05922
1.16364
1.31103
1.43888
1.54038
1.61501
1.63875
1.6398
1.64228
1.64019
1.63806
1.63929
1.64098
1.64324
1.64643
1.65116
1.65665
1.66083
1.66189
1.66215
1.66232
1.66237
1.66232
1.66216
1.66147
1.65993
1.659
1.65921
1.66006
1.66105
1.66227
1.66345
1.66499
1.66647
1.66715
1.66708
1.66691
1.66702
1.66765
1.66872
1.6692
1.66925
1.66903
1.66834
1.6676
1.66747
1
1
1
1
1
1
1
1
1
1
1
1
1
1
1
1
1
1
1
1
1
1
1
1
1
1
1
1
1
1
1
1
1
0.999991
1.00008
1.00145
1.01547
1.09242
1.20682
1.35689
1.47326
1.57433
1.62595
1.63298
1.63764
1.64419
1.64031
1.63517
1.63485
1.63614
1.63917
1.64255
1.64618
1.65068
1.65459
1.65695
1.65906
1.6606
1.66093
1.66099
1.66013
1.65882
1.6578
1.65691
1.65685
1.6576
1.65902
1.6603
1.66084
1.661
1.6613
1.66213
1.66391
1.66604
1.66746
1.66766
1.66773
1.6679
1.66795
1.66773
1
1
1
1
1
1
1
1
1
1
1
1
1
1
1
1
1
1
1
1
1
1
1
1
1
1
1
1
1
1
1
1
1
1
0.999999
1
0.999988
1.00037
1.00355
1.03578
1.13838
1.27397
1.41618
1.51932
1.60106
1.63411
1.63789
1.63992
1.64035
1.63735
1.63438
1.63375
1.63418
1.63632
1.6389
1.64285
1.64841
1.6533
1.65553
1.65605
1.65622
1.65628
1.65661
1.65671
1.65638
1.65573
1.65517
1.65502
1.65495
1.65492
1.65536
1.65659
1.65872
1.66127
1.66324
1.66412
1.66478
1.66558
1.66608
1.66638
1
1
1
1
1
1
1
1
1
1
1
1
1
1
1
1
1
1
1
1
1
1
1
1
1
1
1
1
1
1
1
1
1
1
1
1
0.999999
1
0.999995
1.00004
1.00128
1.01133
1.08419
1.20994
1.35343
1.47465
1.5726
1.62606
1.63553
1.63778
1.64439
1.64378
1.63863
1.63394
1.63374
1.63494
1.63759
1.64052
1.64244
1.64376
1.64607
1.64877
1.65121
1.65225
1.65256
1.65385
1.65508
1.65519
1.65448
1.65282
1.65177
1.65191
1.65359
1.65657
1.65875
1.65958
1.66006
1.66076
1.66157
1.66273
1
1
1
1
1
1
1
1
1
1
1
1
1
1
1
1
1
1
1
1
1
1
1
1
1
1
1
1
1
1
1
1
1
1
1
1
1
1
1
1
1
0.999991
1.00049
1.00473
1.03965
1.16332
1.30954
1.44775
1.53849
1.60468
1.63394
1.63915
1.64034
1.64312
1.64348
1.64238
1.63929
1.63662
1.63548
1.63503
1.63573
1.63703
1.63924
1.64318
1.6472
1.6497
1.65121
1.65175
1.65137
1.65051
1.65059
1.651
1.65199
1.65383
1.65501
1.65508
1.65506
1.65539
1.65618
1.65781
1
1
1
1
1
1
1
1
1
1
1
1
1
1
1
1
1
1
1
1
1
1
1
1
1
1
1
1
1
1
1
1
1
1
1
1
1
1
1
1
1
0.999999
1
0.999994
1.00011
1.00287
1.02075
1.12468
1.2787
1.41555
1.51168
1.58325
1.62819
1.64143
1.64256
1.64445
1.64685
1.64625
1.64292
1.63789
1.63458
1.63408
1.635
1.63665
1.63875
1.64076
1.64296
1.64516
1.64684
1.64701
1.64725
1.64808
1.64978
1.6519
1.65264
1.65249
1.65202
1.65185
1.6519
1.65308
1
1
1
1
1
1
1
1
1
1
1
1
1
1
1
1
1
1
1
1
1
1
1
1
1
1
1
1
1
1
1
1
1
1
1
1
1
1
1
1
1
1
1
1
1
0.999997
1.00002
1.0019
1.01432
1.0847
1.2433
1.40372
1.51519
1.57864
1.61269
1.63407
1.64213
1.64386
1.64385
1.64234
1.64253
1.64334
1.64234
1.63974
1.6377
1.6372
1.63828
1.63962
1.64015
1.64042
1.64114
1.643
1.64607
1.64778
1.64833
1.64839
1.64848
1.64908
1.64959
1.65035
1
1
1
1
1
1
1
1
1
1
1
1
1
1
1
1
1
1
1
1
1
1
1
1
1
1
1
1
1
1
1
1
1
1
1
1
1
1
1
1
1
1
1
1
1
1
1
1
1
1.00095
1.01145
1.07106
1.24075
1.41785
1.52227
1.56932
1.60096
1.62583
1.63278
1.63704
1.64187
1.6455
1.64594
1.64436
1.64238
1.64175
1.64159
1.64112
1.639
1.63706
1.637
1.63815
1.64049
1.64216
1.64301
1.64372
1.64485
1.64578
1.64624
1.64707
1
1
1
1
1
1
1
1
1
1
1
1
1
1
1
1
1
1
1
1
1
1
1
1
1
1
1
1
1
1
1
1
1
1
1
1
1
1
1
1
1
1
1
1
1
1
1
1
1
1
1
1.00072
1.01365
1.07339
1.23624
1.41203
1.53273
1.58541
1.60559
1.61204
1.622
1.63203
1.63927
1.6406
1.64137
1.64282
1.64383
1.64448
1.64348
1.64084
1.63874
1.63852
1.63877
1.6397
1.64012
1.64014
1.64056
1.64161
1.64258
1.6439
1
1
1
1
1
1
1
1
1
1
1
1
1
1
1
1
1
1
1
1
1
1
1
1
1
1
1
1
1
1
1
1
1
1
1
1
1
1
1
1
1
1
1
1
1
1
1
1
1
1
1
0.999999
1.00001
1.0007
1.01456
1.0759
1.23383
1.42635
1.58345
1.60928
1.61048
1.61768
1.62758
1.62852
1.62775
1.63045
1.63607
1.64074
1.64117
1.63933
1.63876
1.63967
1.64153
1.64272
1.64211
1.64012
1.63893
1.63901
1.63988
1.64163
1
1
1
1
1
1
1
1
1
1
1
1
1
1
1
1
1
1
1
1
1
1
1
1
1
1
1
1
1
1
1
1
1
1
1
1
1
1
1
1
1
1
1
1
1
1
1
1
1
1
1
1
1
0.999999
1.00003
1.0008
1.01631
1.09469
1.29701
1.47707
1.57346
1.62827
1.63658
1.63574
1.62711
1.62687
1.62939
1.63168
1.63291
1.63256
1.63355
1.63814
1.64271
1.64374
1.64285
1.64111
1.64017
1.63977
1.63971
1.64058
1
1
1
1
1
1
1
1
1
1
1
1
1
1
1
1
1
1
1
1
1
1
1
1
1
1
1
1
1
1
1
1
1
1
1
1
1
1
1
1
1
1
1
1
1
1
1
1
1
1
1
1
1
1
1
0.999999
1.00005
1.0016
1.02957
1.15535
1.32843
1.48958
1.60491
1.63825
1.63823
1.64359
1.64398
1.6377
1.63188
1.62964
1.6297
1.63374
1.63815
1.6404
1.64018
1.63926
1.63922
1.63942
1.63955
1.63979
1
1
1
1
1
1
1
1
1
1
1
1
1
1
1
1
1
1
1
1
1
1
1
1
1
1
1
1
1
1
1
1
1
1
1
1
1
1
1
1
1
1
1
1
1
1
1
1
1
1
1
1
1
1
1
1
1
0.999998
1.00019
1.00411
1.05003
1.18707
1.38283
1.53441
1.60672
1.63917
1.64491
1.64402
1.64202
1.63968
1.63781
1.63832
1.63919
1.63815
1.6367
1.63595
1.63644
1.63763
1.63833
1.63833
1
1
1
1
1
1
1
1
1
1
1
1
1
1
1
1
1
1
1
1
1
1
1
1
1
1
1
1
1
1
1
1
1
1
1
1
1
1
1
1
1
1
1
1
1
1
1
1
1
1
1
1
1
1
1
1
1
1
1
1
1.00057
1.00731
1.07863
1.29092
1.47159
1.55414
1.60758
1.63463
1.64063
1.64416
1.64694
1.64887
1.64826
1.64488
1.63896
1.63581
1.63663
1.63829
1.6388
1.63799
1
1
1
1
1
1
1
1
1
1
1
1
1
1
1
1
1
1
1
1
1
1
1
1
1
1
1
1
1
1
1
1
1
1
1
1
1
1
1
1
1
1
1
1
1
1
1
1
1
1
1
1
1
1
1
1
1
1
1
1
0.999999
1.00001
1.00191
1.02885
1.16971
1.36269
1.52352
1.5903
1.61147
1.62156
1.63358
1.64307
1.64517
1.64261
1.63913
1.6376
1.63832
1.64056
1.64227
1.64175
1
1
1
1
1
1
1
1
1
1
1
1
1
1
1
1
1
1
1
1
1
1
1
1
1
1
1
1
1
1
1
1
1
1
1
1
1
1
1
1
1
1
1
1
1
1
1
1
1
1
1
1
1
1
1
1
1
1
1
1
1
1
1
1.00025
1.00863
1.06392
1.24387
1.4769
1.60185
1.61393
1.62149
1.62772
1.63514
1.63542
1.63399
1.63247
1.63335
1.63717
1.64236
1.64405
1
1
1
1
1
1
1
1
1
1
1
1
1
1
1
1
1
1
1
1
1
1
1
1
1
1
1
1
1
1
1
1
1
1
1
1
1
1
1
1
1
1
1
1
1
1
1
1
1
1
1
1
1
1
1
1
1
1
1
1
1
1
1
1
1.00003
1.00113
1.02588
1.1505
1.38888
1.54852
1.62735
1.64181
1.64423
1.6438
1.63959
1.63436
1.63132
1.6326
1.6348
1.63889
1
1
1
1
1
1
1
1
1
1
1
1
1
1
1
1
1
1
1
1
1
1
1
1
1
1
1
1
1
1
1
1
1
1
1
1
1
1
1
1
1
1
1
1
1
1
1
1
1
1
1
1
1
1
1
1
1
1
1
1
1
1
1
1
1
1
1.00027
1.0069
1.09422
1.29506
1.48204
1.58297
1.63628
1.64976
1.65138
1.64945
1.64358
1.63643
1.63152
1.63241
1
1
1
1
1
1
1
1
1
1
1
1
1
1
1
1
1
1
1
1
1
1
1
1
1
1
1
1
1
1
1
1
1
1
1
1
1
1
1
1
1
1
1
1
1
1
1
1
1
1
1
1
1
1
1
1
1
1
1
1
1
1
1
1
1
1
1
1.00004
1.00287
1.04027
1.218
1.42439
1.56233
1.62282
1.64096
1.65117
1.65068
1.6469
1.63891
1.63604
1
1
1
1
1
1
1
1
1
1
1
1
1
1
1
1
1
1
1
1
1
1
1
1
1
1
1
1
1
1
1
1
1
1
1
1
1
1
1
1
1
1
1
1
1
1
1
1
1
1
1
1
1
1
1
1
1
1
1
1
1
1
1
1
1
1
1
1
1.00001
1.00079
1.01775
1.14077
1.36437
1.52956
1.59944
1.63858
1.64532
1.64107
1.63726
1.63896
1
1
1
1
1
1
1
1
1
1
1
1
1
1
1
1
1
1
1
1
1
1
1
1
1
1
1
1
1
1
1
1
1
1
1
1
1
1
1
1
1
1
1
1
1
1
1
1
1
1
1
1
1
1
1
1
1
1
1
1
1
1
1
1
1
1
1
1
1
1
1.00018
1.00763
1.07259
1.31585
1.53755
1.61724
1.6266
1.62671
1.62815
1.633
1
1
1
1
1
1
1
1
1
1
1
1
1
1
1
1
1
1
1
1
1
1
1
1
1
1
1
1
1
1
1
1
1
1
1
1
1
1
1
1
1
1
1
1
1
1
1
1
1
1
1
1
1
1
1
1
1
1
1
1
1
1
1
1
1
1
1
1
1
1
1
1.00005
1.00279
1.06539
1.26522
1.47532
1.59619
1.64242
1.64224
1.64025
1
1
1
1
1
1
1
1
1
1
1
1
1
1
1
1
1
1
1
1
1
1
1
1
1
1
1
1
1
1
1
1
1
1
1
1
1
1
1
1
1
1
1
1
1
1
1
1
1
1
1
1
1
1
1
1
1
1
1
1
1
1
1
1
1
1
1
1
1
1
1
1
1.00002
1.0022
1.03983
1.20626
1.42227
1.59029
1.6482
1.65071
1
1
1
1
1
1
1
1
1
1
1
1
1
1
1
1
1
1
1
1
1
1
1
1
1
1
1
1
1
1
1
1
1
1
1
1
1
1
1
1
1
1
1
1
1
1
1
1
1
1
1
1
1
1
1
1
1
1
1
1
1
1
1
1
1
1
1
1
1
1
1
1
1
1.00001
1.00098
1.02057
1.16233
1.41996
1.59182
1.64181
1
1
1
1
1
1
1
1
1
1
1
1
1
1
1
1
1
1
1
1
1
1
1
1
1
1
1
1
1
1
1
1
1
1
1
1
1
1
1
1
1
1
1
1
1
1
1
1
1
1
1
1
1
1
1
1
1
1
1
1
1
1
1
1
1
1
1
1
1
1
1
1
1
1
1
1.00042
1.01408
1.15531
1.40865
1.60264
1
1
1
1
1
1
1
1
1
1
1
1
1
1
1
1
1
1
1
1
1
1
1
1
1
1
1
1
1
1
1
1
1
1
1
1
1
1
1
1
1
1
1
1
1
1
1
1
1
1
1
1
1
1
1
1
1
1
1
1
1
1
1
1
1
1
1
1
1
1
1
1
1
1
1
1
1.00027
1.01455
1.12535
1.49614
1
1
1
1
1
1
1
1
1
1
1
1
1
1
1
1
1
1
1
1
1
1
1
1
1
1
1
1
1
1
1
1
1
1
1
1
1
1
1
1
1
1
1
1
1
1
1
1
1
1
1
1
1
1
1
1
1
1
1
1
1
1
1
1
1
1
1
1
1
1
1
1
1
1
1
1
1
1.00035
1.00885
1.30379
1
1
1
1
1
1
1
1
1
1
1
1
1
1
1
1
1
1
1
1
1
1
1
1
1
1
1
1
1
1
1
1
1
1
1
1
1
1
1
1
1
1
1
1
1
1
1
1
1
1
1
1
1
1
1
1
1
1
1
1
1
1
1
1
1
1
1
1
1
1
1
1
1
1
1
1
1
1
1.0003
1.09099
1
1
1
1
1
1
1
1
1
1
1
1
1
1
1
1
1
1
1
1
1
1
1
1
1
1
1
1
1
1
1
1
1
1
1
1
1
1
1
1
1
1
1
1
1
1
1
1
1
1
1
1
1
1
1
1
1
1
1
1
1
1
1
1
1
1
1
1
1
1
1
1
1
1
1
1
1
1
1.00001
1.01292
1
1
1
1
1
1
1
1
1
1
1
1
1
1
1
1
1
1
1
1
1
1
1
1
1
1
1
1
1
1
1
1
1
1
1
1
1
1
1
1
1
1
1
1
1
1
1
1
1
1
1
1
1
1
1
1
1
1
1
1
1
1
1
1
1
1
1
1
1
1
1
1
1
1
1
1
1
1
1
1.00124
)
;

boundaryField
{
    inlet
    {
        type            fixedValue;
        value           uniform 1;
    }
    outlet
    {
        type            zeroGradient;
    }
    bottom
    {
        type            symmetryPlane;
    }
    top
    {
        type            symmetryPlane;
    }
    obstacle
    {
        type            zeroGradient;
    }
    defaultFaces
    {
        type            empty;
    }
}


// ************************************************************************* //
