/*--------------------------------*- C++ -*----------------------------------*\
| =========                 |                                                 |
| \\      /  F ield         | OpenFOAM: The Open Source CFD Toolbox           |
|  \\    /   O peration     | Version:  2206                                  |
|   \\  /    A nd           | Website:  www.openfoam.com                      |
|    \\/     M anipulation  |                                                 |
\*---------------------------------------------------------------------------*/
FoamFile
{
    version     2.0;
    format      ascii;
    arch        "LSB;label=32;scalar=64";
    class       volVectorField;
    location    "0.16";
    object      U;
}
// * * * * * * * * * * * * * * * * * * * * * * * * * * * * * * * * * * * * * //

dimensions      [0 1 -1 0 0 0 0];

internalField   nonuniform List<vector> 
75
(
(6.91919 -3.05719e-15 0)
(6.91919 -3.04344e-15 0)
(6.91919 2.75047e-17 0)
(6.91919 -8.79319e-17 0)
(6.91919 -3.05053e-16 0)
(6.91919 -7.29293e-17 0)
(6.91919 -3.29599e-15 0)
(6.91919 -3.15888e-15 0)
(6.91919 -3.0001e-15 0)
(6.91919 -2.78568e-15 0)
(6.91919 -1.22938e-16 0)
(6.91919 -3.00885e-16 0)
(6.91919 -3.38767e-15 0)
(6.91919 -3.14596e-15 0)
(6.91919 -9.33612e-16 0)
(6.91919 -2.89258e-15 0)
(6.91919 -7.44295e-16 0)
(6.91919 2.02118e-15 0)
(6.91919 4.58579e-15 0)
(6.91919 8.78893e-15 0)
(6.91919 -1.72113e-16 0)
(6.91919 -1.9295e-16 0)
(6.91919 1.78114e-15 0)
(6.91919 5.96478e-15 0)
(6.91919 6.30067e-15 0)
(6.89978 -0.031098 0)
(6.86145 0.0929155 0)
(6.82608 0.0487714 0)
(6.76635 0.245911 0)
(6.72939 0.249521 0)
(6.64941 0.491333 0)
(6.61473 0.532464 0)
(6.51175 0.796788 0)
(6.48244 0.864597 0)
(6.35167 1.15553 0)
(6.91919 5.29751e-06 0)
(6.9192 9.52578e-06 0)
(6.921 -0.00564049 0)
(6.91829 0.00245065 0)
(6.93159 -0.0326433 0)
(6.86812 0.136582 0)
(6.85576 0.168866 0)
(6.67386 0.63438 0)
(6.65411 0.816473 0)
(6.30615 1.66533 0)
(6.91919 9.05537e-08 0)
(6.91919 -2.3007e-07 0)
(6.91919 1.34683e-07 0)
(6.91919 1.00802e-07 0)
(6.91919 2.09494e-06 0)
(6.91919 -4.74951e-06 0)
(6.91997 -0.00199169 0)
(6.91831 0.00236657 0)
(6.92086 -0.00259541 0)
(6.81732 0.357416 0)
(6.91919 1.81682e-09 0)
(6.91919 9.4813e-10 0)
(6.91919 2.31166e-09 0)
(6.91919 5.79913e-09 0)
(6.91919 -2.2192e-09 0)
(6.91919 -1.46118e-08 0)
(6.91925 -0.000153873 0)
(6.91923 -0.000150179 0)
(6.91918 -0.000155016 0)
(6.91653 0.0136384 0)
(6.91919 1.51487e-11 0)
(6.91919 3.81273e-11 0)
(6.91919 3.45195e-10 0)
(6.91919 1.98311e-10 0)
(6.91919 8.28003e-10 0)
(6.91919 3.09359e-09 0)
(6.91919 1.18659e-06 0)
(6.9192 -1.20211e-05 0)
(6.91918 -4.2195e-05 0)
(6.91916 4.08484e-05 0)
)
;

boundaryField
{
    inlet
    {
        type            fixedValue;
        value           uniform (6.91919 0 0);
    }
    outlet
    {
        type            zeroGradient;
    }
    bottom
    {
        type            symmetryPlane;
    }
    top
    {
        type            symmetryPlane;
    }
    obstacle
    {
        type            slip;
    }
    defaultFaces
    {
        type            empty;
    }
}


// ************************************************************************* //
