/*--------------------------------*- C++ -*----------------------------------*\
| =========                 |                                                 |
| \\      /  F ield         | OpenFOAM: The Open Source CFD Toolbox           |
|  \\    /   O peration     | Version:  2206                                  |
|   \\  /    A nd           | Website:  www.openfoam.com                      |
|    \\/     M anipulation  |                                                 |
\*---------------------------------------------------------------------------*/
FoamFile
{
    version     2.0;
    format      ascii;
    arch        "LSB;label=32;scalar=64";
    class       volVectorField;
    location    "0.14";
    object      U;
}
// * * * * * * * * * * * * * * * * * * * * * * * * * * * * * * * * * * * * * //

dimensions      [0 1 -1 0 0 0 0];

internalField   nonuniform List<vector> 
75
(
(4.37374 -4.69123e-15 0)
(4.37374 -4.67706e-15 0)
(4.37374 4.29241e-17 0)
(4.37374 -1.87116e-16 0)
(4.37374 -7.1429e-16 0)
(4.37374 -4.52995e-16 0)
(4.37374 -6.08522e-15 0)
(4.37374 -5.86643e-15 0)
(4.37374 -5.63722e-15 0)
(4.37374 -4.98022e-15 0)
(4.37374 -4.71998e-15 0)
(4.37374 -4.66206e-15 0)
(4.37374 -8.72859e-15 0)
(4.37374 -8.04681e-15 0)
(4.37374 -1.0775e-15 0)
(4.37374 -4.28449e-15 0)
(4.37374 -6.34276e-16 0)
(4.37374 3.35766e-15 0)
(4.37374 7.14457e-15 0)
(4.37374 1.35006e-14 0)
(4.37374 4.28449e-15 0)
(4.37374 4.00361e-15 0)
(4.37374 7.07872e-15 0)
(4.37374 1.35611e-14 0)
(4.37374 1.42691e-14 0)
(4.334 0.00301632 0)
(4.2735 0.0669567 0)
(4.21254 0.138241 0)
(4.14387 0.252524 0)
(4.08575 0.345159 0)
(4.0055 0.503912 0)
(3.95726 0.59533 0)
(3.89673 0.751145 0)
(3.84093 0.896902 0)
(3.76959 1.00545 0)
(4.37346 -7.82924e-05 0)
(4.36812 0.00888611 0)
(4.35097 0.0444439 0)
(4.30831 0.139096 0)
(4.24577 0.29078 0)
(4.13187 0.552308 0)
(4.03504 0.819821 0)
(3.8745 1.14571 0)
(3.76376 1.39112 0)
(3.6665 1.25641 0)
(4.37374 -1.49942e-06 0)
(4.37373 1.75303e-05 0)
(4.37418 -0.000825407 0)
(4.37327 0.00197108 0)
(4.37289 0.0014413 0)
(4.36374 0.0273544 0)
(4.34716 0.0789545 0)
(4.26011 0.324792 0)
(4.26795 0.622628 0)
(3.93525 1.04605 0)
(4.37374 -4.61587e-07 0)
(4.37374 -4.66622e-07 0)
(4.37376 -6.27205e-05 0)
(4.37375 -6.37145e-05 0)
(4.37377 -0.000105025 0)
(4.37365 0.000259069 0)
(4.37385 -0.000255067 0)
(4.36765 0.0195593 0)
(4.36448 0.149768 0)
(4.09478 0.864777 0)
(4.37374 -5.81902e-09 0)
(4.37374 -6.07406e-08 0)
(4.37374 -2.68747e-06 0)
(4.37374 -1.15628e-05 0)
(4.37375 -4.13416e-05 0)
(4.37375 -2.75325e-05 0)
(4.37375 -2.08751e-05 0)
(4.37369 -1.86825e-05 0)
(4.36627 0.00802561 0)
(4.13878 0.286913 0)
)
;

boundaryField
{
    inlet
    {
        type            fixedValue;
        value           uniform (4.37374 0 0);
    }
    outlet
    {
        type            zeroGradient;
    }
    bottom
    {
        type            symmetryPlane;
    }
    top
    {
        type            symmetryPlane;
    }
    obstacle
    {
        type            slip;
    }
    defaultFaces
    {
        type            empty;
    }
}


// ************************************************************************* //
