/*--------------------------------*- C++ -*----------------------------------*\
| =========                 |                                                 |
| \\      /  F ield         | OpenFOAM: The Open Source CFD Toolbox           |
|  \\    /   O peration     | Version:  2206                                  |
|   \\  /    A nd           | Website:  www.openfoam.com                      |
|    \\/     M anipulation  |                                                 |
\*---------------------------------------------------------------------------*/
FoamFile
{
    version     2.0;
    format      ascii;
    arch        "LSB;label=32;scalar=64";
    class       volVectorField;
    location    "0.06";
    object      U;
}
// * * * * * * * * * * * * * * * * * * * * * * * * * * * * * * * * * * * * * //

dimensions      [0 1 -1 0 0 0 0];

internalField   nonuniform List<vector> 
4800
(
(4.37374 -2.4871e-15 0)
(4.37374 -6.76784e-16 0)
(4.37374 1.81631e-14 0)
(4.37374 4.91285e-14 0)
(4.37374 9.99139e-14 0)
(4.37374 1.12289e-13 0)
(4.37374 6.50479e-14 0)
(4.37374 4.03636e-14 0)
(4.37374 3.66463e-14 0)
(4.37374 3.45426e-14 0)
(4.37374 2.36841e-14 0)
(4.37374 -1.12753e-14 0)
(4.37374 -3.74398e-15 0)
(4.37374 1.90633e-14 0)
(4.37374 7.98771e-14 0)
(4.37374 1.20841e-13 0)
(4.37374 1.13863e-13 0)
(4.37374 1.03114e-13 0)
(4.37374 5.1929e-14 0)
(4.37374 -3.57728e-15 0)
(4.37374 -2.85716e-15 0)
(4.37374 -2.29973e-14 0)
(4.37374 -3.33324e-14 0)
(4.37374 -1.58961e-14 0)
(4.37374 -1.98468e-14 0)
(4.37374 -6.71349e-14 0)
(4.37374 -8.23676e-14 0)
(4.37374 -6.39677e-14 0)
(4.37374 -7.36227e-14 0)
(4.37374 -6.05405e-14 0)
(4.37374 -3.08153e-14 0)
(4.37374 -1.41358e-14 0)
(4.37374 -1.06252e-14 0)
(4.37374 -4.36075e-14 0)
(4.37374 -4.66347e-14 0)
(4.37374 -2.57044e-14 0)
(4.37374 2.54511e-14 0)
(4.37374 4.27974e-14 0)
(4.37374 6.91253e-14 0)
(4.37374 -7.3246e-15 0)
(4.37374 9.58165e-15 0)
(4.37374 2.92917e-14 0)
(4.37374 1.57927e-14 0)
(4.37374 3.15454e-14 0)
(4.37374 8.38745e-14 0)
(4.37374 1.20838e-13 0)
(4.37374 1.01284e-13 0)
(4.37374 5.67731e-14 0)
(4.37374 3.71297e-14 0)
(4.37374 2.9075e-14 0)
(4.37374 -3.62763e-14 0)
(4.37374 -6.5878e-14 0)
(4.37374 -2.65446e-14 0)
(4.37374 -9.68167e-15 0)
(4.37374 3.39392e-14 0)
(4.37374 7.10856e-14 0)
(4.37374 5.01253e-14 0)
(4.37374 2.09436e-14 0)
(4.37374 -1.23688e-15 0)
(4.37374 -9.95205e-14 0)
(4.37374 -4.05937e-14 0)
(4.37374 -9.13491e-16 0)
(4.37374 2.75514e-14 0)
(4.37374 5.20957e-14 0)
(4.37374 1.66762e-14 0)
(4.37374 -6.11339e-14 0)
(4.37374 -1.66189e-13 0)
(4.37374 -1.81498e-13 0)
(4.37374 -1.65762e-13 0)
(4.37374 -1.62651e-13 0)
(4.37374 -1.31449e-13 0)
(4.37374 -1.52776e-13 0)
(4.37374 -1.24138e-13 0)
(4.37374 -8.66783e-14 0)
(4.37374 -4.92385e-14 0)
(4.37374 -3.91368e-14 0)
(4.37374 3.95135e-14 0)
(4.37374 5.2249e-14 0)
(4.37374 9.2706e-14 0)
(4.37374 3.56659e-14 0)
(4.37374 9.37829e-15 0)
(4.37374 1.60694e-15 0)
(4.37374 -1.86032e-15 0)
(4.37374 6.02771e-15 0)
(4.37374 1.05385e-14 0)
(4.37374 3.04286e-14 0)
(4.37374 7.93437e-14 0)
(4.37374 9.74302e-14 0)
(4.37374 5.32292e-14 0)
(4.37374 2.70713e-15 0)
(4.37374 -4.55945e-14 0)
(4.37374 -4.04003e-14 0)
(4.37374 2.36641e-14 0)
(4.37374 5.9917e-14 0)
(4.37374 4.4401e-14 0)
(4.37374 2.28239e-14 0)
(4.37374 2.74781e-14 0)
(4.37374 3.18055e-15 0)
(4.37374 -2.33774e-14 0)
(4.37374 -1.82932e-14 0)
(4.37374 2.68613e-14 0)
(4.37374 8.41412e-14 0)
(4.37374 2.06972e-13 0)
(4.37374 2.42329e-13 0)
(4.37374 2.20535e-13 0)
(4.37374 1.71763e-13 0)
(4.37374 1.39404e-13 0)
(4.37374 3.71531e-14 0)
(4.37374 5.01353e-14 0)
(4.37374 3.70064e-15 0)
(4.37374 -2.5241e-14 0)
(4.37374 -1.07685e-14 0)
(4.37374 -1.57627e-14 0)
(4.37374 -1.26922e-14 0)
(4.37374 1.13333e-13 0)
(4.37374 1.38004e-13 0)
(4.37374 1.43161e-13 0)
(4.37374 1.41474e-13 0)
(4.37374 1.35613e-13 0)
(4.37374 2.13715e-13 0)
(4.37374 -2.07402e-14 0)
(4.37374 -2.06269e-14 0)
(4.37374 2.68613e-14 0)
(4.37374 5.46428e-14 0)
(4.37374 3.69897e-14 0)
(4.37374 4.93952e-14 0)
(4.37374 7.28326e-14 0)
(4.37374 9.01322e-14 0)
(4.37374 4.80416e-14 0)
(4.37374 1.89699e-15 0)
(4.37374 1.08119e-14 0)
(4.37374 3.23323e-14 0)
(4.37374 8.42079e-14 0)
(4.37374 1.5341e-13 0)
(4.37374 1.46019e-13 0)
(4.37374 8.99789e-14 0)
(4.37374 3.06886e-14 0)
(4.37374 -2.18204e-14 0)
(4.37374 9.53831e-15 0)
(4.37374 7.38728e-14 0)
(4.37374 1.36344e-13 0)
(4.37374 1.86576e-13 0)
(4.37374 1.84509e-13 0)
(4.37374 1.75654e-13 0)
(4.37374 2.22668e-13 0)
(4.37374 2.02702e-13 0)
(4.37374 1.87892e-13 0)
(4.37374 1.5229e-13 0)
(4.37374 1.10442e-13 0)
(4.37374 -1.03351e-15 0)
(4.37374 -9.88071e-14 0)
(4.37374 -1.24141e-13 0)
(4.37374 -5.26891e-14 0)
(4.37374 1.3645e-13 0)
(4.37374 1.69119e-13 0)
(4.37374 2.04325e-13 0)
(4.37374 1.46725e-13 0)
(4.37374 1.64378e-13 0)
(4.37374 9.2686e-14 0)
(4.37374 -1.0071e-14 0)
(4.37374 4.33075e-15 0)
(4.37374 1.21354e-15 0)
(4.37374 -1.54993e-14 0)
(4.37374 -3.20089e-14 0)
(4.37374 -2.00335e-14 0)
(4.37374 4.00069e-17 0)
(4.37374 -4.30074e-15 0)
(4.37374 -2.28339e-14 0)
(4.37374 -2.82415e-14 0)
(4.37374 -2.59045e-14 0)
(4.37374 -2.05235e-14 0)
(4.37374 1.3659e-14 0)
(4.37374 4.34842e-14 0)
(4.37374 6.28709e-14 0)
(4.37374 6.5358e-14 0)
(4.37374 4.51445e-14 0)
(4.37374 3.67397e-15 0)
(4.37374 2.02502e-14 0)
(4.37374 4.49611e-14 0)
(4.37374 6.90719e-14 0)
(4.37374 6.88386e-14 0)
(4.37374 1.02701e-13 0)
(4.37374 1.3432e-13 0)
(4.37374 1.44615e-13 0)
(4.37374 8.79085e-14 0)
(4.37374 7.23725e-14 0)
(4.37374 9.08524e-14 0)
(4.37374 1.08462e-13 0)
(4.37374 9.94138e-14 0)
(4.37374 1.13953e-14 0)
(4.37374 -7.49629e-14 0)
(4.37374 -1.27132e-13 0)
(4.37374 -5.80134e-14 0)
(4.37374 7.65399e-14 0)
(4.37374 1.02804e-13 0)
(4.37374 4.28741e-14 0)
(4.37374 4.51911e-14 0)
(4.37374 6.90519e-14 0)
(4.37374 6.40677e-14 0)
(4.37374 4.49434e-14 0)
(4.37374 9.17492e-15 0)
(4.37374 3.50727e-15 0)
(4.37374 -1.34123e-14 0)
(4.37374 -6.39444e-15 0)
(4.37374 3.31124e-14 0)
(4.37374 3.16088e-14 0)
(4.37374 1.65062e-14 0)
(4.37374 -9.95839e-15 0)
(4.37374 -7.88169e-14 0)
(4.37374 -7.17391e-14 0)
(4.37374 -7.41061e-14 0)
(4.37374 -6.24475e-14 0)
(4.37374 -4.76249e-14 0)
(4.37374 -7.86202e-14 0)
(4.37374 -6.32076e-14 0)
(4.37374 -5.16823e-14 0)
(4.37374 -1.57794e-14 0)
(4.37374 6.88886e-14 0)
(4.37374 8.68883e-14 0)
(4.37374 4.43443e-14 0)
(4.37374 6.0077e-15 0)
(4.37374 -3.72298e-14 0)
(4.37374 8.90054e-14 0)
(4.37374 1.33566e-13 0)
(4.37374 1.13193e-13 0)
(4.37374 1.1787e-13 0)
(4.37374 9.64533e-14 0)
(4.37374 8.77518e-14 0)
(4.37374 1.01534e-13 0)
(4.37374 2.05702e-15 0)
(4.37374 -2.05569e-14 0)
(4.37374 -1.07552e-14 0)
(4.37374 5.73666e-14 0)
(4.37374 9.66667e-14 0)
(4.37374 6.25708e-14 0)
(4.37374 4.48711e-14 0)
(4.37374 4.88284e-14 0)
(4.37374 5.13422e-14 0)
(4.37374 4.96386e-14 0)
(4.37374 -6.69364e-14 0)
(4.37374 -5.27758e-15 0)
(4.37374 4.74449e-14 0)
(4.37374 5.4096e-14 0)
(4.37374 4.59279e-14 0)
(4.37374 2.97018e-14 0)
(4.37374 1.3509e-14 0)
(4.37374 -5.75433e-15 0)
(4.37374 -5.23424e-16 0)
(4.37374 -2.44142e-14 0)
(4.37374 -6.84985e-14 0)
(4.37374 -6.28909e-14 0)
(4.37374 -6.98587e-14 0)
(4.37374 -9.0639e-14 0)
(4.37374 -8.28643e-14 0)
(4.37374 -9.82336e-14 0)
(4.37374 -2.1197e-14 0)
(4.37374 3.40059e-14 0)
(4.37374 5.12989e-14 0)
(4.37374 2.10336e-14 0)
(4.37374 -4.79316e-14 0)
(4.37374 -6.91153e-14 0)
(4.37374 -9.22826e-14 0)
(4.37374 -6.27142e-14 0)
(4.37374 4.70215e-14 0)
(4.37374 9.653e-14 0)
(4.37374 7.53597e-14 0)
(4.37374 -3.6423e-14 0)
(4.37374 -5.44894e-14 0)
(4.37374 -7.3276e-14 0)
(4.37374 -1.44915e-13 0)
(4.37374 -1.67669e-13 0)
(4.37374 -1.24121e-13 0)
(4.37374 1.06852e-14 0)
(4.37374 2.47443e-14 0)
(4.37374 2.7038e-15 0)
(4.37374 3.36058e-15 0)
(4.37374 -5.24224e-14 0)
(4.37374 -1.04445e-13 0)
(4.37374 -1.35987e-13 0)
(4.37374 -1.32842e-13 0)
(4.37374 1.12353e-15 0)
(4.37374 8.64483e-15 0)
(4.37374 6.79784e-15 0)
(4.37374 -2.5311e-14 0)
(4.37374 -1.67162e-14 0)
(4.37374 -1.03418e-14 0)
(4.37374 2.66713e-16 0)
(4.37374 -1.32656e-14 0)
(4.37374 1.48059e-14 0)
(4.37374 -4.47744e-14 0)
(4.37374 -1.12043e-13 0)
(4.37374 -1.16947e-13 0)
(4.37374 -9.03623e-14 0)
(4.37374 -1.10892e-13 0)
(4.37374 -7.42928e-14 0)
(4.37374 -3.19055e-15 0)
(4.37374 1.10152e-14 0)
(4.37374 1.71663e-14 0)
(4.37374 7.40128e-16 0)
(4.37374 2.1167e-14 0)
(4.37374 -5.64764e-15 0)
(4.37374 -2.38841e-14 0)
(4.37374 -1.377e-13 0)
(4.37374 -1.57441e-13 0)
(4.37374 -1.21258e-13 0)
(4.37374 -1.57834e-13 0)
(4.37374 -2.64759e-13 0)
(4.37374 -2.42048e-13 0)
(4.37374 -2.59018e-13 0)
(4.37374 -2.37794e-13 0)
(4.37374 -2.63002e-13 0)
(4.37374 -1.97637e-13 0)
(4.37374 -1.76911e-13 0)
(4.37374 -9.91838e-14 0)
(4.37374 -1.38291e-14 0)
(4.37374 -2.99552e-14 0)
(4.37374 -1.12243e-13 0)
(4.37374 -1.56254e-13 0)
(4.37374 -1.84382e-13 0)
(4.37374 -1.70655e-13 0)
(4.37374 -2.73381e-15 0)
(4.37374 -2.63546e-14 0)
(4.37374 -3.51294e-14 0)
(4.37374 -1.97334e-14 0)
(4.37374 2.5171e-15 0)
(4.37374 -1.96101e-14 0)
(4.37374 1.13853e-14 0)
(4.37374 -4.56079e-15 0)
(4.37374 3.02052e-14 0)
(4.37374 8.57915e-14 0)
(4.37374 1.49192e-14 0)
(4.37374 -7.47062e-14 0)
(4.37374 -1.10049e-13 0)
(4.37374 -1.44762e-13 0)
(4.37374 -1.35927e-13 0)
(4.37374 -7.36394e-14 0)
(4.37374 -4.90651e-14 0)
(4.37374 -4.46911e-14 0)
(4.37374 1.12686e-15 0)
(4.37374 1.40558e-14 0)
(4.37374 -3.93868e-14 0)
(4.37374 -1.42981e-13 0)
(4.37374 -2.16294e-13 0)
(4.37374 -2.06229e-13 0)
(4.37374 -1.48446e-13 0)
(4.37374 -1.38744e-13 0)
(4.37374 -1.37874e-13 0)
(4.37374 -1.49502e-13 0)
(4.37374 -1.73917e-13 0)
(4.37374 -1.22458e-13 0)
(4.37374 -2.62012e-14 0)
(4.37374 -3.21722e-15 0)
(4.37374 -1.21421e-14 0)
(4.37374 3.49394e-15 0)
(4.37374 -2.11203e-14 0)
(4.37374 -1.957e-15 0)
(4.37374 -3.24723e-15 0)
(4.37374 1.44925e-14 0)
(4.37374 5.63164e-14 0)
(4.37374 8.69049e-14 0)
(4.37374 9.18159e-15 0)
(4.37374 1.06452e-14 0)
(4.37374 -6.63781e-15 0)
(4.37374 -1.00484e-14 0)
(4.37374 -3.84933e-14 0)
(4.37374 -1.02398e-13 0)
(4.37374 -1.31253e-13 0)
(4.37374 -1.03641e-13 0)
(4.37374 -4.8235e-14 0)
(4.37374 3.70364e-14 0)
(4.37374 4.32175e-14 0)
(4.37374 1.03318e-14 0)
(4.37374 -4.0557e-14 0)
(4.37374 -1.1421e-13 0)
(4.37374 -2.05509e-13 0)
(4.37374 -2.22382e-13 0)
(4.37374 -2.21862e-13 0)
(4.37374 -2.07509e-13 0)
(4.37374 -1.78688e-13 0)
(4.37374 -9.74635e-14 0)
(4.37374 -9.95472e-14 0)
(4.37374 -1.9053e-13 0)
(4.37374 -1.81951e-13 0)
(4.37374 -1.69846e-13 0)
(4.37374 -1.68779e-13 0)
(4.37374 -1.1433e-13 0)
(4.37374 -1.08702e-13 0)
(4.37374 -1.1674e-13 0)
(4.37374 -7.9417e-14 0)
(4.37374 -5.52429e-14 0)
(4.37374 2.75781e-14 0)
(4.37374 7.3216e-14 0)
(4.37374 4.52211e-14 0)
(4.37374 -6.82184e-14 0)
(4.37374 -7.20024e-14 0)
(4.37374 -4.14105e-14 0)
(4.37374 2.24539e-14 0)
(4.37374 4.50711e-14 0)
(4.37374 9.21559e-14 0)
(4.37374 1.97121e-13 0)
(4.37374 -5.77766e-15 0)
(4.37374 2.09203e-14 0)
(4.37374 4.2704e-14 0)
(4.37374 4.09337e-14 0)
(4.37374 2.38708e-15 0)
(4.37374 3.22722e-14 0)
(4.37374 1.948e-14 0)
(4.37374 2.20371e-15 0)
(4.37374 -9.57499e-15 0)
(4.37374 -3.25156e-14 0)
(4.37374 -3.60596e-14 0)
(4.37374 3.41459e-14 0)
(4.37374 3.2899e-14 0)
(4.37374 -7.44962e-14 0)
(4.37374 -1.42421e-13 0)
(4.37374 -1.82348e-13 0)
(4.37374 -2.9123e-13 0)
(4.37374 -3.00885e-13 0)
(4.37374 -2.24395e-13 0)
(4.37374 -7.24892e-14 0)
(4.37374 1.39257e-14 0)
(4.37374 4.37876e-14 0)
(4.37374 9.21159e-15 0)
(4.37374 -2.15904e-14 0)
(4.37374 -3.887e-14 0)
(4.37374 -1.20041e-13 0)
(4.37374 -1.39451e-13 0)
(4.37374 -1.11669e-13 0)
(4.37374 -3.56162e-14 0)
(4.37374 -1.64895e-14 0)
(4.37374 -7.1479e-15 0)
(4.37374 3.47927e-14 0)
(4.37374 -1.3669e-16 0)
(4.37374 -4.31041e-14 0)
(4.37374 -3.06986e-14 0)
(4.37374 5.00053e-14 0)
(4.37374 1.31723e-13 0)
(4.37374 1.07382e-13 0)
(4.37374 8.51114e-14 0)
(4.37374 7.84071e-14 0)
(4.37374 -5.37426e-15 0)
(4.37374 -1.49693e-14 0)
(4.37374 3.39059e-15 0)
(4.37374 5.64764e-15 0)
(4.37374 1.97134e-14 0)
(4.37374 4.38876e-14 0)
(4.37374 1.27579e-13 0)
(4.37374 1.42401e-13 0)
(4.37374 1.5586e-13 0)
(4.37374 1.71973e-13 0)
(4.37374 1.42938e-13 0)
(4.37374 -1.43358e-16 0)
(4.37374 -6.7745e-15 0)
(4.37374 4.82417e-15 0)
(4.37374 -2.63479e-14 0)
(4.37374 -1.76957e-13 0)
(4.37374 -1.75564e-13 0)
(4.37374 -1.84272e-13 0)
(4.37374 -8.23409e-14 0)
(4.37374 4.53412e-14 0)
(4.37374 6.75617e-14 0)
(4.37374 7.45462e-14 0)
(4.37374 5.03387e-14 0)
(4.37374 2.28473e-14 0)
(4.37374 -1.5336e-15 0)
(4.37374 6.79451e-15 0)
(4.37374 2.6758e-14 0)
(4.37374 7.21591e-14 0)
(4.37374 6.5828e-14 0)
(4.37374 4.60079e-15 0)
(4.37374 -3.44059e-15 0)
(4.37374 5.781e-15 0)
(4.37374 6.30809e-14 0)
(4.37374 2.23805e-14 0)
(4.37374 -6.21107e-14 0)
(4.37374 -1.05402e-13 0)
(4.37374 -1.12419e-13 0)
(4.37374 -6.79484e-14 0)
(4.37374 -3.29424e-14 0)
(4.37374 -2.64457e-14 0)
(4.37374 3.90067e-16 0)
(4.37374 -8.97488e-15 0)
(4.37374 -3.91501e-14 0)
(4.37374 -7.3166e-14 0)
(4.37374 -6.62181e-14 0)
(4.37374 -5.4186e-14 0)
(4.37374 -2.4981e-14 0)
(4.37374 2.29506e-14 0)
(4.37374 5.31558e-14 0)
(4.37374 4.14038e-14 0)
(4.37374 5.16356e-14 0)
(4.37374 4.98086e-15 0)
(4.37374 1.1842e-14 0)
(4.37374 5.70165e-14 0)
(4.37374 3.04453e-14 0)
(4.37374 6.73016e-14 0)
(4.37374 7.62198e-14 0)
(4.37374 5.71065e-14 0)
(4.37374 1.40224e-14 0)
(4.37374 -5.24757e-15 0)
(4.37374 -1.81098e-14 0)
(4.37374 -4.35975e-14 0)
(4.37374 -6.7775e-14 0)
(4.37374 -7.01955e-14 0)
(4.37374 -1.01524e-13 0)
(4.37374 -2.04402e-14 0)
(4.37374 2.61545e-14 0)
(4.37374 5.66464e-14 0)
(4.37374 5.95503e-14 0)
(4.37374 9.95572e-14 0)
(4.37374 -7.22458e-15 0)
(4.37374 -1.23738e-13 0)
(4.37374 -1.49436e-13 0)
(4.37374 -1.77947e-13 0)
(4.37374 -2.16694e-13 0)
(4.37374 -2.48373e-13 0)
(4.37374 -1.741e-13 0)
(4.37374 -9.23493e-14 0)
(4.37374 -4.97486e-14 0)
(4.37374 -7.82987e-15 0)
(4.37374 6.54446e-15 0)
(4.37374 1.21254e-14 0)
(4.37374 -3.03386e-16 0)
(4.37374 -5.15089e-15 0)
(4.37374 -5.9977e-15 0)
(4.37374 -3.10554e-14 0)
(4.37374 -8.13174e-14 0)
(4.37374 -6.58047e-14 0)
(4.37374 -5.71532e-14 0)
(4.37374 -7.43562e-14 0)
(4.37374 -5.15622e-14 0)
(4.37374 -3.25823e-14 0)
(4.37374 2.00335e-14 0)
(4.37374 -2.38741e-14 0)
(4.37374 1.54693e-14 0)
(4.37374 1.34327e-13 0)
(4.37374 2.52864e-13 0)
(4.37374 2.85923e-13 0)
(4.37374 1.52866e-13 0)
(4.37374 7.81968e-14 0)
(4.37374 6.50312e-14 0)
(4.37374 -1.73897e-14 0)
(4.37374 -7.95771e-14 0)
(4.37374 -1.1393e-13 0)
(4.37374 -1.59814e-13 0)
(4.37374 -1.13186e-13 0)
(4.37374 -5.49695e-14 0)
(4.37374 3.20822e-14 0)
(4.37374 7.95704e-14 0)
(4.37374 1.22358e-13 0)
(4.37374 4.58813e-14 0)
(4.37374 -2.26372e-14 0)
(4.37374 -2.64079e-14 0)
(4.37374 -6.32142e-14 0)
(4.37374 -3.93868e-14 0)
(4.37374 3.12687e-14 0)
(4.37374 7.10023e-14 0)
(4.37374 5.11555e-14 0)
(4.37374 1.1342e-14 0)
(4.37374 2.53556e-14 0)
(4.37374 9.70168e-15 0)
(4.37374 2.38941e-14 0)
(4.37374 3.05086e-14 0)
(4.37374 3.85533e-14 0)
(4.37374 2.10936e-14 0)
(4.37374 1.7333e-14 0)
(4.37374 1.52126e-14 0)
(4.37374 -2.11537e-14 0)
(4.37374 5.74099e-15 0)
(4.37374 3.37725e-15 0)
(4.37374 -3.27223e-14 0)
(4.37374 -1.20521e-14 0)
(4.37374 4.02336e-14 0)
(4.37374 8.52481e-14 0)
(4.37374 1.3403e-13 0)
(4.37374 1.16233e-13 0)
(4.37374 1.10472e-13 0)
(4.37374 1.07762e-13 0)
(4.37374 1.05158e-13 0)
(4.37374 1.71196e-14 0)
(4.37374 5.814e-14 0)
(4.37374 7.13357e-14 0)
(4.37374 5.25924e-14 0)
(4.37374 -2.45976e-14 0)
(4.37374 -8.83553e-14 0)
(4.37374 -9.17425e-14 0)
(4.37374 -2.00268e-14 0)
(4.37374 3.84633e-14 0)
(4.37374 1.13316e-13 0)
(4.37374 1.79498e-13 0)
(4.37374 6.64281e-14 0)
(4.37374 2.15671e-14 0)
(4.37374 2.73814e-14 0)
(4.37374 6.06671e-14 0)
(4.37374 5.82834e-14 0)
(4.37374 1.24898e-13 0)
(4.37374 1.99208e-13 0)
(4.37374 2.00501e-13 0)
(4.37374 2.01872e-13 0)
(4.37374 1.15429e-13 0)
(4.37374 -9.92505e-15 0)
(4.37374 -1.68429e-14 0)
(4.37374 1.78064e-14 0)
(4.37374 5.05821e-14 0)
(4.37374 2.05869e-14 0)
(4.37374 5.05087e-15 0)
(4.37374 1.7393e-14 0)
(4.37374 -8.26476e-15 0)
(4.37374 1.3669e-16 0)
(4.37374 1.924e-14 0)
(4.37374 5.32825e-14 0)
(4.37374 1.1606e-13 0)
(4.37374 1.78601e-13 0)
(4.37374 1.82455e-13 0)
(4.37374 2.15447e-13 0)
(4.37374 1.77881e-13 0)
(4.37374 9.85737e-14 0)
(4.37374 6.66182e-14 0)
(4.37374 9.40396e-14 0)
(4.37374 6.54946e-14 0)
(4.37374 9.18892e-14 0)
(4.37374 1.18254e-13 0)
(4.37374 8.05472e-14 0)
(4.37374 3.42392e-15 0)
(4.37374 -5.42527e-14 0)
(4.37374 -5.16489e-14 0)
(4.37374 -1.00251e-14 0)
(4.37374 7.3326e-14 0)
(4.37374 1.96107e-13 0)
(4.37374 2.03145e-13 0)
(4.37374 1.46459e-13 0)
(4.37374 7.29393e-14 0)
(4.37374 -2.28306e-14 0)
(4.37374 -3.4976e-14 0)
(4.37374 -3.96669e-14 0)
(4.37374 -5.00853e-14 0)
(4.37374 -3.17988e-14 0)
(4.37374 5.97737e-14 0)
(4.37374 9.53098e-14 0)
(4.37374 1.17054e-13 0)
(4.37374 -2.38341e-14 0)
(4.37374 -4.62447e-14 0)
(4.37374 -2.7158e-14 0)
(4.37374 3.89601e-14 0)
(4.37374 4.79983e-14 0)
(4.37374 -2.92551e-14 0)
(4.37374 -5.49462e-14 0)
(4.37374 -7.95137e-15 0)
(4.37374 3.34391e-14 0)
(4.37374 8.17274e-14 0)
(4.37374 1.45115e-13 0)
(4.37374 1.62461e-13 0)
(4.37374 1.89679e-13 0)
(4.37374 1.23301e-13 0)
(4.37374 4.80016e-14 0)
(4.37374 7.31426e-14 0)
(4.37374 1.07142e-13 0)
(4.37374 1.18394e-13 0)
(4.37374 1.07048e-13 0)
(4.37374 6.40477e-14 0)
(4.37374 2.37941e-14 0)
(4.37374 -2.38441e-14 0)
(4.37374 -2.78481e-14 0)
(4.37374 4.82083e-15 0)
(4.37374 2.41142e-14 0)
(4.37374 -4.37742e-15 0)
(4.37374 -1.72596e-14 0)
(4.37374 2.66046e-15 0)
(4.37374 1.24121e-14 0)
(4.37374 6.11772e-15 0)
(4.37374 -5.90235e-14 0)
(4.37374 -1.1844e-13 0)
(4.37374 -1.78317e-13 0)
(4.37374 -1.931e-13 0)
(4.37374 -1.66222e-13 0)
(4.37374 -1.40218e-13 0)
(4.37374 -1.30252e-13 0)
(4.37374 -1.95e-14 0)
(4.37374 3.06153e-14 0)
(4.37374 6.46643e-14 0)
(4.37374 1.43691e-15 0)
(4.37374 -1.29356e-14 0)
(4.37374 -3.78465e-14 0)
(4.37374 -1.96601e-14 0)
(4.37374 2.32207e-14 0)
(4.37374 4.27607e-14 0)
(4.37374 3.47927e-14 0)
(4.37374 4.38442e-14 0)
(4.37374 4.30741e-14 0)
(4.37374 5.20623e-14 0)
(4.37374 5.99804e-14 0)
(4.37374 4.16472e-14 0)
(4.37374 1.28289e-14 0)
(4.37374 4.76882e-14 0)
(4.37374 4.59779e-14 0)
(4.37374 6.23174e-14 0)
(4.37374 6.5628e-14 0)
(4.37374 9.17492e-14 0)
(4.37374 1.32733e-13 0)
(4.37374 1.18467e-13 0)
(4.37374 -2.79682e-14 0)
(4.37374 -1.25775e-13 0)
(4.37374 -1.03971e-13 0)
(4.37374 9.22926e-14 0)
(4.37374 1.87946e-13 0)
(4.37374 2.03999e-13 0)
(4.37374 1.86599e-13 0)
(4.37374 1.47989e-13 0)
(4.37374 -6.49245e-14 0)
(4.37374 -1.08855e-13 0)
(4.37374 -1.07052e-13 0)
(4.37374 -1.27885e-13 0)
(4.37374 -8.40412e-14 0)
(4.37374 -7.14157e-14 0)
(4.37374 -2.63379e-14 0)
(4.37374 4.27841e-14 0)
(4.37374 4.84617e-14 0)
(4.37374 1.14433e-13 0)
(4.37374 1.41788e-13 0)
(4.37374 1.63931e-13 0)
(4.37374 2.1227e-14 0)
(4.37374 1.35257e-14 0)
(4.37374 -9.645e-15 0)
(4.37374 -3.4636e-14 0)
(4.37374 2.41375e-14 0)
(4.37374 9.664e-14 0)
(4.37374 1.39474e-13 0)
(4.37374 8.74718e-14 0)
(4.37374 5.35359e-14 0)
(4.37374 3.0752e-14 0)
(4.37374 2.57945e-14 0)
(4.37374 2.23839e-14 0)
(4.37374 3.57695e-14 0)
(4.37374 9.8227e-14 0)
(4.37374 7.02488e-14 0)
(4.37374 1.5306e-14 0)
(4.37374 -1.75297e-14 0)
(4.37374 -9.78169e-15 0)
(4.37374 -1.67096e-14 0)
(4.37374 -4.60079e-16 0)
(4.37374 3.99369e-14 0)
(4.37374 3.82266e-14 0)
(4.37374 3.40159e-14 0)
(4.37374 5.2299e-14 0)
(4.37374 5.10955e-14 0)
(4.37374 5.10055e-14 0)
(4.37374 1.09256e-13 0)
(4.37374 7.15624e-14 0)
(4.37374 -6.32142e-14 0)
(4.37374 -1.09732e-13 0)
(4.37374 -1.11239e-13 0)
(4.37374 -2.32674e-14 0)
(4.37374 1.29186e-13 0)
(4.37374 1.5297e-13 0)
(4.37374 1.53423e-13 0)
(4.37374 1.3524e-13 0)
(4.37374 1.49242e-13 0)
(4.37374 8.19942e-14 0)
(4.37374 5.83601e-14 0)
(4.37374 4.91068e-14 0)
(4.37374 -5.44427e-15 0)
(4.37374 2.49943e-14 0)
(4.37374 4.55279e-14 0)
(4.37374 1.65095e-14 0)
(4.37374 7.78468e-15 0)
(4.37374 1.37857e-14 0)
(4.37374 2.57044e-14 0)
(4.37374 5.55729e-14 0)
(4.37374 3.39225e-14 0)
(4.37374 6.90219e-14 0)
(4.37374 1.03588e-13 0)
(4.37374 5.23324e-14 0)
(4.37374 6.14173e-14 0)
(4.37374 4.94252e-14 0)
(4.37374 6.04071e-14 0)
(4.37374 -1.01418e-14 0)
(4.37374 -8.16108e-14 0)
(4.37374 -1.30613e-13 0)
(4.37374 -2.01778e-13 0)
(4.37374 -5.00453e-14 0)
(4.37374 1.13603e-13 0)
(4.37374 2.46316e-13 0)
(4.37374 2.84526e-13 0)
(4.37374 1.59164e-13 0)
(4.37374 3.24256e-14 0)
(4.37374 -5.29425e-15 0)
(4.37374 -6.5658e-14 0)
(4.37374 -1.73217e-13 0)
(4.37374 -1.98451e-13 0)
(4.37374 -1.49189e-13 0)
(4.37374 -7.08956e-14 0)
(4.37374 1.06168e-13 0)
(4.37374 2.1164e-13 0)
(4.37374 2.6838e-13 0)
(4.37374 1.34983e-13 0)
(4.37374 -5.15156e-14 0)
(4.37374 -9.74402e-14 0)
(4.37374 -1.12686e-13 0)
(4.37374 -1.7453e-13 0)
(4.37374 -1.73449e-13 0)
(4.37374 -3.15054e-15 0)
(4.37374 9.01156e-15 0)
(4.37374 5.29758e-14 0)
(4.37374 5.35392e-14 0)
(4.37374 1.47625e-14 0)
(4.37374 -2.47976e-14 0)
(4.37374 -5.75833e-14 0)
(4.37374 -5.40993e-14 0)
(4.37374 -4.30774e-14 0)
(4.37374 -1.3659e-14 0)
(4.37374 -3.4866e-14 0)
(4.37374 -3.65296e-14 0)
(4.37374 -6.15873e-14 0)
(4.37374 -7.03588e-14 0)
(4.37374 -6.7815e-14 0)
(4.37374 -9.91071e-14 0)
(4.37374 -9.98506e-14 0)
(4.37374 -1.3726e-13 0)
(4.37374 -1.89803e-13 0)
(4.37374 -1.1331e-13 0)
(4.37374 5.08488e-14 0)
(4.37374 1.81138e-13 0)
(4.37374 2.324e-13 0)
(4.37374 1.69356e-13 0)
(4.37374 8.24142e-14 0)
(4.37374 3.53361e-14 0)
(4.37374 -2.33374e-16 0)
(4.37374 -3.50127e-14 0)
(4.37374 -3.36791e-14 0)
(4.37374 4.00069e-17 0)
(4.37374 1.02031e-13 0)
(4.37374 1.68762e-13 0)
(4.37374 2.14077e-13 0)
(4.37374 1.3485e-13 0)
(4.37374 1.26889e-13 0)
(4.37374 1.31393e-13 0)
(4.37374 8.6755e-14 0)
(4.37374 3.21756e-14 0)
(4.37374 1.34056e-14 0)
(4.37374 1.10462e-14 0)
(4.37374 3.07053e-15 0)
(4.37374 -2.02568e-14 0)
(4.37374 -2.55711e-14 0)
(4.37374 -7.80802e-15 0)
(4.37374 -3.13587e-14 0)
(4.37374 -5.48761e-14 0)
(4.37374 -6.81818e-14 0)
(4.37374 -7.72333e-14 0)
(4.37374 -4.0517e-14 0)
(4.37374 -3.24123e-14 0)
(4.37374 -5.3986e-14 0)
(4.37374 -7.87536e-14 0)
(4.37374 -7.41128e-14 0)
(4.37374 -6.03538e-14 0)
(4.37374 -7.49263e-14 0)
(4.37374 -1.36637e-13 0)
(4.37374 -1.87656e-13 0)
(4.37374 -1.47969e-13 0)
(4.37374 -1.10052e-13 0)
(4.37374 -9.28727e-14 0)
(4.37374 -2.27006e-14 0)
(4.37374 1.82365e-14 0)
(4.37374 4.86217e-14 0)
(4.37374 7.84502e-14 0)
(4.37374 2.2954e-14 0)
(4.37374 4.59313e-14 0)
(4.37374 6.94887e-14 0)
(4.37374 1.04985e-13 0)
(4.37374 1.14163e-13 0)
(4.37374 8.20442e-14 0)
(4.37374 6.46612e-14 0)
(4.37374 1.28646e-13 0)
(4.37374 1.04615e-13 0)
(4.37374 9.35095e-14 0)
(4.37374 1.42895e-13 0)
(4.37374 1.47102e-13 0)
(4.37374 1.42995e-13 0)
(4.37374 7.28092e-14 0)
(4.37374 3.4566e-14 0)
(4.37374 2.72908e-14 0)
(4.37374 5.13422e-15 0)
(4.37374 2.17037e-15 0)
(4.37374 -1.11119e-14 0)
(4.37374 -6.29575e-14 0)
(4.37374 -3.90834e-14 0)
(4.37374 -8.21609e-14 0)
(4.37374 -1.30599e-13 0)
(4.37374 -1.52596e-13 0)
(4.37374 -1.13253e-13 0)
(4.37374 -1.25388e-13 0)
(4.37374 -8.29177e-14 0)
(4.37374 -8.78618e-14 0)
(4.37374 -1.05838e-13 0)
(4.37374 -1.01037e-13 0)
(4.37374 -6.43811e-14 0)
(4.37374 -1.43725e-14 0)
(4.37374 -1.17587e-14 0)
(4.37374 -2.04535e-14 0)
(4.37374 -4.49244e-14 0)
(4.37374 -3.51727e-15 0)
(4.37374 -1.46559e-14 0)
(4.37374 -1.20637e-13 0)
(4.37374 -2.20048e-13 0)
(4.37374 -9.44997e-14 0)
(4.37374 -6.62714e-14 0)
(4.37374 -2.80182e-14 0)
(4.37374 7.12623e-14 0)
(4.37374 1.26635e-13 0)
(4.37374 1.3286e-13 0)
(4.37374 1.57971e-13 0)
(4.37374 1.5453e-13 0)
(4.37374 8.90954e-14 0)
(4.37374 -4.9942e-14 0)
(4.37374 -7.90203e-14 0)
(4.37374 -5.60597e-14 0)
(4.37374 -5.9557e-14 0)
(4.37374 -6.29942e-14 0)
(4.37374 -1.1633e-13 0)
(4.37374 -1.61625e-13 0)
(4.37374 -1.46036e-13 0)
(4.37374 3.00052e-16 0)
(4.37374 -1.36924e-14 0)
(4.37374 -4.44277e-14 0)
(4.37374 -4.70548e-14 0)
(4.37374 4.33408e-17 0)
(4.37374 -1.84399e-14 0)
(4.37374 -1.41458e-14 0)
(4.37374 -6.30075e-14 0)
(4.37374 -1.28419e-13 0)
(4.37374 -1.61318e-13 0)
(4.37374 -1.45752e-13 0)
(4.37374 -4.11371e-14 0)
(4.37374 -4.74982e-14 0)
(4.37374 -1.04985e-13 0)
(4.37374 -1.02161e-13 0)
(4.37374 5.784e-14 0)
(4.37374 9.40996e-14 0)
(4.37374 4.15405e-14 0)
(4.37374 -1.02284e-14 0)
(4.37374 -3.12587e-14 0)
(4.37374 -1.60781e-13 0)
(4.37374 -2.01395e-13 0)
(4.37374 -2.22505e-13 0)
(4.37374 -2.52974e-13 0)
(4.37374 -1.50556e-13 0)
(4.37374 -9.92571e-14 0)
(4.37374 -1.7263e-14 0)
(4.37374 7.21091e-14 0)
(4.37374 9.68201e-14 0)
(4.37374 1.26789e-13 0)
(4.37374 7.78834e-14 0)
(4.37374 -3.2889e-14 0)
(4.37374 -9.76102e-14 0)
(4.37374 -1.68002e-13 0)
(4.37374 -1.95484e-13 0)
(4.37374 -2.75494e-13 0)
(4.37374 -2.72797e-13 0)
(4.37374 -1.94567e-13 0)
(4.37374 -1.85492e-13 0)
(4.37374 -1.60049e-13 0)
(4.37374 -1.26622e-14 0)
(4.37374 6.06771e-16 0)
(4.37374 -2.90217e-14 0)
(4.37374 -1.60661e-14 0)
(4.37374 4.46344e-14 0)
(4.37374 6.29542e-14 0)
(4.37374 1.36994e-13 0)
(4.37374 1.41051e-13 0)
(4.37374 6.05238e-14 0)
(4.37374 3.05553e-14 0)
(4.37374 -7.41795e-15 0)
(4.37374 4.27207e-14 0)
(4.37374 7.5293e-14 0)
(4.37374 5.30425e-14 0)
(4.37374 6.21107e-15 0)
(4.37374 3.95702e-14 0)
(4.37374 1.79598e-14 0)
(4.37374 8.01138e-15 0)
(4.37374 -3.06986e-14 0)
(4.37374 -2.15871e-14 0)
(4.37374 -8.84353e-14 0)
(4.37374 -8.7005e-14 0)
(4.37374 -6.24141e-14 0)
(4.37374 -2.36307e-14 0)
(4.37374 -1.33356e-16 0)
(4.37374 -3.49727e-15 0)
(4.37374 6.01437e-15 0)
(4.37374 -1.00417e-14 0)
(4.37374 -2.36708e-16 0)
(4.37374 2.88717e-15 0)
(4.37374 -2.4951e-14 0)
(4.37374 -3.56795e-14 0)
(4.37374 -5.811e-15 0)
(4.37374 -5.27291e-14 0)
(4.37374 -1.77071e-13 0)
(4.37374 -2.88993e-13 0)
(4.37374 -3.43363e-13 0)
(4.37374 -2.7122e-13 0)
(4.37374 -2.02478e-13 0)
(4.37374 -1.64829e-13 0)
(4.37374 1.65395e-14 0)
(4.37374 3.16988e-14 0)
(4.37374 3.16755e-14 0)
(4.37374 1.72963e-14 0)
(4.37374 1.49926e-14 0)
(4.37374 4.75749e-14 0)
(4.37374 7.80535e-14 0)
(4.37374 8.02072e-14 0)
(4.37374 7.46396e-14 0)
(4.37374 2.34107e-14 0)
(4.37374 -1.60028e-15 0)
(4.37374 -2.60378e-14 0)
(4.37374 2.3054e-14 0)
(4.37374 7.41728e-14 0)
(4.37374 1.51363e-13 0)
(4.37374 1.25288e-13 0)
(4.37374 4.33908e-14 0)
(4.37374 -6.13573e-14 0)
(4.37374 -6.00204e-14 0)
(4.37374 -5.61164e-14 0)
(4.37374 -3.28057e-14 0)
(4.37374 -6.91486e-14 0)
(4.37374 -7.73434e-14 0)
(4.37374 -8.86153e-15 0)
(4.37374 1.74563e-14 0)
(4.37374 4.2634e-14 0)
(4.37374 5.76433e-15 0)
(4.37374 -1.26005e-13 0)
(4.37374 -5.38793e-14 0)
(4.37374 -7.81802e-15 0)
(4.37374 -1.5336e-14 0)
(4.37374 -2.88283e-14 0)
(4.37374 2.33574e-14 0)
(4.37374 -5.48795e-14 0)
(4.37374 -1.44515e-13 0)
(4.37374 -1.86459e-13 0)
(4.37374 -2.57188e-13 0)
(4.37374 -3.04466e-13 0)
(4.37374 -2.1441e-13 0)
(4.37374 -1.33911e-13 0)
(4.37374 1.10352e-15 0)
(4.37374 -2.26372e-15 0)
(4.37374 3.80599e-14 0)
(4.37374 3.57228e-14 0)
(4.37374 -3.27123e-14 0)
(4.37374 -3.47627e-14 0)
(4.37374 -2.88416e-14 0)
(4.37374 -1.85232e-14 0)
(4.37374 -4.93419e-16 0)
(4.37374 1.84632e-14 0)
(4.37374 2.71714e-15 0)
(4.37374 -8.11807e-15 0)
(4.37374 -5.20323e-14 0)
(4.37374 -2.13704e-15 0)
(4.37374 3.25056e-14 0)
(4.37374 2.57244e-14 0)
(4.37374 1.61528e-14 0)
(4.37374 -2.01635e-14 0)
(4.37374 -7.63332e-14 0)
(4.37374 -1.84422e-13 0)
(4.37374 -1.9159e-13 0)
(4.37374 -1.92067e-13 0)
(4.37374 -1.07028e-13 0)
(4.37374 -3.07853e-14 0)
(4.37374 -1.5156e-14 0)
(4.37374 -5.55296e-14 0)
(4.37374 -1.61698e-13 0)
(4.37374 -1.43558e-13 0)
(4.37374 -1.50623e-13 0)
(4.37374 -1.82415e-13 0)
(4.37374 -2.18974e-13 0)
(4.37374 -2.21485e-13 0)
(4.37374 -1.64972e-13 0)
(4.37374 -1.38941e-13 0)
(4.37374 -1.178e-13 0)
(4.37374 -1.3525e-13 0)
(4.37374 -1.57641e-13 0)
(4.37374 -1.68442e-13 0)
(4.37374 -1.56844e-13 0)
(4.37374 -1.80535e-13 0)
(4.37374 -2.01835e-14 0)
(4.37374 -1.14253e-14 0)
(4.37374 -3.74731e-15 0)
(4.37374 -7.3346e-15 0)
(4.37374 -1.25588e-14 0)
(4.37374 2.52044e-15 0)
(4.37374 -1.74964e-14 0)
(4.37374 -7.94971e-14 0)
(4.37374 -7.41828e-14 0)
(4.37374 -1.31723e-14 0)
(4.37374 3.59095e-14 0)
(4.37374 3.00452e-14 0)
(4.37374 2.50777e-14 0)
(4.37374 -1.3509e-14 0)
(4.37374 -8.53681e-14 0)
(4.37374 -5.59997e-14 0)
(4.37374 -3.02519e-14 0)
(4.37374 -9.98739e-14 0)
(4.37374 -3.35668e-13 0)
(4.37374 -3.74305e-13 0)
(4.37374 -3.71688e-13 0)
(4.37374 -2.915e-13 0)
(4.37374 -1.73627e-13 0)
(4.37374 -1.68496e-14 0)
(4.37374 4.80416e-15 0)
(4.37374 -9.95739e-14 0)
(4.37374 -2.04912e-13 0)
(4.37374 -1.84392e-13 0)
(4.37374 -1.75654e-13 0)
(4.37374 -2.13123e-13 0)
(4.37374 -2.80015e-13 0)
(4.37374 -2.97195e-13 0)
(4.37374 -2.75838e-13 0)
(4.37374 -2.41592e-13 0)
(4.37374 -1.95554e-13 0)
(4.37374 -1.78871e-13 0)
(4.37374 -1.35927e-13 0)
(4.37374 -1.28619e-13 0)
(4.37374 -1.90109e-13 0)
(4.37374 -2.47867e-13 0)
(4.37374 6.22107e-15 0)
(4.37374 8.29477e-15 0)
(4.37374 -9.61499e-15 0)
(4.37374 1.50859e-14 0)
(4.37374 5.83101e-14 0)
(4.37374 7.95571e-14 0)
(4.37374 6.09305e-14 0)
(4.37374 -1.67996e-14 0)
(4.37374 -7.42828e-14 0)
(4.37374 -9.4493e-14 0)
(4.37374 -6.98621e-14 0)
(4.37374 -5.76733e-14 0)
(4.37374 -4.77216e-14 0)
(4.37374 -6.52413e-14 0)
(4.37374 -1.15973e-13 0)
(4.37374 -1.05248e-13 0)
(4.37374 -8.8762e-14 0)
(4.37374 -4.34275e-14 0)
(4.37374 -3.61229e-14 0)
(4.37374 -3.02352e-14 0)
(4.37374 -4.24507e-14 0)
(4.37374 -8.54781e-14 0)
(4.37374 -1.00101e-13 0)
(4.37374 -7.39661e-14 0)
(4.37374 -1.48642e-13 0)
(4.37374 -1.61178e-13 0)
(4.37374 -2.03782e-13 0)
(4.37374 -2.18128e-13 0)
(4.37374 -2.03055e-13 0)
(4.37374 -1.46082e-13 0)
(4.37374 -1.02454e-13 0)
(4.37374 -1.59391e-13 0)
(4.37374 -2.5072e-13 0)
(4.37374 -2.87746e-13 0)
(4.37374 -2.05666e-13 0)
(4.37374 -1.17384e-13 0)
(4.37374 -1.00577e-13 0)
(4.37374 -1.1476e-13 0)
(4.37374 -1.27359e-13 0)
(4.37374 -1.02129e-13 0)
(4.37374 1.97401e-14 0)
(4.37374 -5.76433e-15 0)
(4.37374 -7.83802e-15 0)
(4.37374 1.70029e-15 0)
(4.37374 3.01619e-14 0)
(4.37374 3.77499e-14 0)
(4.37374 5.6093e-14 0)
(4.37374 4.59513e-14 0)
(4.37374 -5.17756e-15 0)
(4.37374 -2.79115e-14 0)
(4.37374 -4.50244e-14 0)
(4.37374 -6.23574e-14 0)
(4.37374 -1.34177e-13 0)
(4.37374 -1.35477e-13 0)
(4.37374 -1.91283e-13 0)
(4.37374 -2.36468e-13 0)
(4.37374 -2.02942e-13 0)
(4.37374 -5.08888e-14 0)
(4.37374 1.28335e-13 0)
(4.37374 1.85072e-13 0)
(4.37374 1.00154e-13 0)
(4.37374 3.05719e-15 0)
(4.37374 -2.20571e-14 0)
(4.37374 -9.95539e-14 0)
(4.37374 -1.05828e-13 0)
(4.37374 -1.28732e-13 0)
(4.37374 -1.34467e-13 0)
(4.37374 -1.43251e-13 0)
(4.37374 -1.87426e-13 0)
(4.37374 -1.51746e-13 0)
(4.37374 -8.91087e-14 0)
(4.37374 -6.00104e-15 0)