/*--------------------------------*- C++ -*----------------------------------*\
| =========                 |                                                 |
| \\      /  F ield         | OpenFOAM: The Open Source CFD Toolbox           |
|  \\    /   O peration     | Version:  2206                                  |
|   \\  /    A nd           | Website:  www.openfoam.com                      |
|    \\/     M anipulation  |                                                 |
\*---------------------------------------------------------------------------*/
FoamFile
{
    version     2.0;
    format      ascii;
    arch        "LSB;label=32;scalar=64";
    class       volVectorField;
    location    "0.14";
    object      U;
}
// * * * * * * * * * * * * * * * * * * * * * * * * * * * * * * * * * * * * * //

dimensions      [0 1 -1 0 0 0 0];

internalField   nonuniform List<vector> 
4800
(
(4.49495 -5.97437e-15 0)
(4.49495 -3.87067e-15 0)
(4.49495 1.947e-15 0)
(4.49495 1.57327e-14 0)
(4.49495 6.28975e-14 0)
(4.49495 5.93836e-14 0)
(4.49495 4.91118e-14 0)
(4.49495 7.40295e-14 0)
(4.49495 5.4026e-14 0)
(4.49495 1.26522e-14 0)
(4.49495 -9.96839e-15 0)
(4.49495 5.69432e-15 0)
(4.49495 1.01151e-14 0)
(4.49495 -1.09352e-14 0)
(4.49495 6.05771e-15 0)
(4.49495 3.0772e-14 0)
(4.49495 4.8215e-14 0)
(4.49495 4.50011e-14 0)
(4.49495 1.3669e-14 0)
(4.49495 -1.49526e-14 0)
(4.49495 -1.62661e-14 0)
(4.49495 6.46078e-14 0)
(4.49495 7.86102e-14 0)
(4.49495 1.05902e-13 0)
(4.49495 1.04378e-13 0)
(4.49495 8.98722e-14 0)
(4.49495 3.27123e-14 0)
(4.49495 3.79566e-14 0)
(4.49495 2.47809e-14 0)
(4.49495 5.94736e-14 0)
(4.49495 6.45145e-14 0)
(4.49495 5.65898e-14 0)
(4.49495 1.44325e-14 0)
(4.49495 1.08252e-14 0)
(4.49495 2.8915e-14 0)
(4.49495 6.47812e-14 0)
(4.49495 9.29594e-14 0)
(4.49495 8.21809e-14 0)
(4.49495 8.50814e-14 0)
(4.49495 4.6308e-14 0)
(4.49495 1.04518e-14 0)
(4.49495 3.77399e-15 0)
(4.49495 1.44425e-14 0)
(4.49495 9.665e-15 0)
(4.49495 2.60512e-14 0)
(4.49495 1.07885e-14 0)
(4.49495 4.56345e-14 0)
(4.49495 1.1817e-13 0)
(4.49495 1.19761e-13 0)
(4.49495 8.04839e-14 0)
(4.49495 4.40576e-14 0)
(4.49495 5.791e-15 0)
(4.49495 1.42225e-14 0)
(4.49495 1.71063e-14 0)
(4.49495 3.74098e-14 0)
(4.49495 6.23508e-14 0)
(4.49495 6.50946e-14 0)
(4.49495 -6.38777e-15 0)
(4.49495 -2.09036e-14 0)
(4.49495 -5.37526e-14 0)
(4.49495 -2.63979e-14 0)
(4.49495 8.29443e-14 0)
(4.49495 1.31163e-13 0)
(4.49495 1.49396e-13 0)
(4.49495 1.30072e-13 0)
(4.49495 9.8687e-14 0)
(4.49495 2.70047e-15 0)
(4.49495 5.47928e-14 0)
(4.49495 9.79336e-14 0)
(4.49495 1.11643e-13 0)
(4.49495 9.45397e-14 0)
(4.49495 4.32008e-14 0)
(4.49495 8.47146e-15 0)
(4.49495 1.91733e-14 0)
(4.49495 5.38826e-14 0)
(4.49495 8.54348e-14 0)
(4.49495 1.09536e-13 0)
(4.49495 1.37437e-13 0)
(4.49495 2.78861e-13 0)
(4.49495 1.56004e-13 0)
(4.49495 2.6848e-14 0)
(4.49495 4.48111e-14 0)
(4.49495 3.19855e-14 0)
(4.49495 -2.34807e-14 0)
(4.49495 -7.07155e-14 0)
(4.49495 -2.95451e-14 0)
(4.49495 6.31309e-14 0)
(4.49495 8.02705e-14 0)
(4.49495 1.79654e-13 0)
(4.49495 2.20195e-13 0)
(4.49495 1.89653e-13 0)
(4.49495 8.18575e-14 0)
(4.49495 5.68298e-14 0)
(4.49495 5.58897e-14 0)
(4.49495 2.49076e-14 0)
(4.49495 4.05803e-14 0)
(4.49495 7.82602e-14 0)
(4.49495 1.52126e-14 0)
(4.49495 -1.97034e-15 0)
(4.49495 -1.93667e-14 0)
(4.49495 1.07852e-14 0)
(4.49495 6.68649e-14 0)
(4.49495 8.56915e-14 0)
(4.49495 3.93501e-14 0)
(4.49495 2.41942e-14 0)
(4.49495 -4.73082e-15 0)
(4.49495 -2.31073e-14 0)
(4.49495 -9.99173e-15 0)
(4.49495 4.02003e-14 0)
(4.49495 6.70116e-14 0)
(4.49495 7.84469e-14 0)
(4.49495 3.43326e-14 0)
(4.49495 2.72747e-14 0)
(4.49495 4.36309e-14 0)
(4.49495 1.21938e-13 0)
(4.49495 1.21688e-13 0)
(4.49495 9.54498e-14 0)
(4.49495 1.00357e-13 0)
(4.49495 1.28606e-13 0)
(4.49495 1.48913e-13 0)
(4.49495 -9.31828e-15 0)
(4.49495 5.81767e-15 0)
(4.49495 -4.76949e-14 0)
(4.49495 -1.05695e-13 0)
(4.49495 -1.01488e-13 0)
(4.49495 -7.99171e-14 0)
(4.49495 -6.04138e-14 0)
(4.49495 -3.34724e-15 0)
(4.49495 1.04285e-14 0)
(4.49495 -8.36811e-15 0)
(4.49495 -2.56611e-14 0)
(4.49495 -1.72897e-14 0)
(4.49495 -7.36094e-14 0)
(4.49495 -1.57751e-13 0)
(4.49495 -1.83058e-13 0)
(4.49495 -1.38291e-13 0)
(4.49495 -6.02204e-14 0)
(4.49495 -3.33591e-14 0)
(4.49495 -4.49811e-14 0)
(4.49495 -4.13838e-14 0)
(4.49495 -3.28723e-14 0)
(4.49495 -3.24023e-14 0)
(4.49495 -9.47497e-14 0)
(4.49495 -1.39644e-13 0)
(4.49495 -1.21881e-13 0)
(4.49495 -1.14476e-13 0)
(4.49495 -1.18064e-13 0)
(4.49495 -3.1002e-14 0)
(4.49495 6.69316e-14 0)
(4.49495 9.53131e-14 0)
(4.49495 1.25628e-13 0)
(4.49495 1.04785e-13 0)
(4.49495 8.44379e-14 0)
(4.49495 1.86599e-14 0)
(4.49495 2.05502e-14 0)
(4.49495 -7.10789e-15 0)
(4.49495 -3.08553e-14 0)
(4.49495 -6.38677e-14 0)
(4.49495 -1.35323e-14 0)
(4.49495 8.42048e-14 0)
(4.49495 -1.87132e-14 0)
(4.49495 -1.42658e-14 0)
(4.49495 -3.857e-14 0)
(4.49495 -3.73798e-14 0)
(4.49495 -8.74818e-15 0)
(4.49495 -1.65962e-14 0)
(4.49495 -1.97868e-14 0)
(4.49495 -3.00352e-14 0)
(4.49495 -8.07306e-14 0)
(4.49495 -1.06512e-13 0)
(4.49495 -1.02341e-13 0)
(4.49495 -8.60649e-14 0)
(4.49495 -1.29766e-13 0)
(4.49495 -1.77277e-13 0)
(4.49495 -1.18504e-13 0)
(4.49495 -1.27205e-13 0)
(4.49495 -1.58117e-13 0)
(4.49495 -9.71568e-14 0)
(4.49495 -8.57481e-15 0)
(4.49495 5.27758e-15 0)
(4.49495 5.21357e-14 0)
(4.49495 7.76701e-14 0)
(4.49495 2.10036e-14 0)
(4.49495 -5.45261e-14 0)
(4.49495 -1.90476e-13 0)
(4.49495 -1.87842e-13 0)
(4.49495 8.83486e-16 0)
(4.49495 8.21675e-14 0)
(4.49495 7.73934e-14 0)
(4.49495 1.32169e-13 0)
(4.49495 1.14423e-13 0)
(4.49495 8.13274e-14 0)
(4.49495 1.64428e-14 0)
(4.49495 1.16353e-15 0)
(4.49495 3.76932e-14 0)
(4.49495 3.70164e-14 0)
(4.49495 4.56746e-16 0)
(4.49495 -3.62329e-14 0)
(4.49495 -4.50278e-14 0)
(4.49495 -2.32864e-14 0)
(4.49495 -4.46744e-16 0)
(4.49495 1.27755e-14 0)
(4.49495 5.76433e-14 0)
(4.49495 1.18534e-13 0)
(4.49495 9.96005e-14 0)
(4.49495 1.08452e-13 0)
(4.49495 1.07535e-13 0)
(4.49495 6.43111e-14 0)
(4.49495 4.20939e-14 0)
(4.49495 4.4291e-14 0)
(4.49495 5.2239e-14 0)
(4.49495 5.791e-15 0)
(4.49495 -2.55344e-14 0)
(4.49495 -4.64914e-14 0)
(4.49495 2.46943e-14 0)
(4.49495 3.41692e-14 0)
(4.49495 5.78567e-14 0)
(4.49495 5.4096e-14 0)
(4.49495 -9.16158e-15 0)
(4.49495 -1.08619e-14 0)
(4.49495 4.04503e-14 0)
(4.49495 9.59932e-14 0)
(4.49495 6.73583e-14 0)
(4.49495 -5.18956e-14 0)
(4.49495 -8.12007e-14 0)
(4.49495 -1.06662e-13 0)
(4.49495 -7.95404e-14 0)
(4.49495 -6.36377e-14 0)
(4.49495 -6.04871e-14 0)
(4.49495 -1.07285e-14 0)
(4.49495 -2.07302e-14 0)
(4.49495 -9.03423e-14 0)
(4.49495 -9.35161e-14 0)
(4.49495 -3.06686e-14 0)
(4.49495 -3.19388e-15 0)
(4.49495 1.12153e-14 0)
(4.49495 5.00786e-14 0)
(4.49495 -4.01903e-14 0)
(4.49495 -1.14406e-13 0)
(4.49495 -1.07006e-13 0)
(4.49495 -8.89487e-15 0)
(4.49495 -2.3244e-14 0)
(4.49495 2.66646e-14 0)
(4.49495 4.56912e-14 0)
(4.49495 2.10603e-14 0)
(4.49495 6.68782e-15 0)
(4.49495 4.6608e-15 0)
(4.49495 1.44592e-14 0)
(4.49495 3.06686e-14 0)
(4.49495 7.14623e-14 0)
(4.49495 6.19074e-14 0)
(4.49495 6.42211e-14 0)
(4.49495 8.36778e-14 0)
(4.49495 6.17707e-14 0)
(4.49495 2.94151e-14 0)
(4.49495 -6.59447e-15 0)
(4.49495 -5.31758e-15 0)
(4.49495 -6.72483e-14 0)
(4.49495 -1.05185e-13 0)
(4.49495 -1.20004e-13 0)
(4.49495 -1.66245e-13 0)
(4.49495 -1.96051e-13 0)
(4.49495 -1.65872e-13 0)
(4.49495 -1.12249e-13 0)
(4.49495 -6.65015e-14 0)
(4.49495 -7.95804e-15 0)
(4.49495 -3.21055e-14 0)
(4.49495 -6.69349e-14 0)
(4.49495 -6.85685e-14 0)
(4.49495 -1.59778e-13 0)
(4.49495 -1.43401e-13 0)
(4.49495 -1.00627e-13 0)
(4.49495 -2.69513e-14 0)
(4.49495 -4.56746e-15 0)
(4.49495 1.42758e-14 0)
(4.49495 4.14138e-14 0)
(4.49495 4.8405e-14 0)
(4.49495 -5.74666e-14 0)
(4.49495 -6.41878e-14 0)
(4.49495 9.23378e-15 0)
(4.49495 1.22554e-14 0)
(4.49495 -4.44743e-15 0)
(4.49495 -5.30092e-15 0)
(4.49495 -1.85465e-14 0)
(4.49495 -1.40924e-14 0)
(4.49495 -3.98269e-14 0)
(4.49495 -9.91538e-14 0)
(4.49495 -1.26945e-13 0)
(4.49495 -1.25712e-13 0)
(4.49495 -1.13716e-13 0)
(4.49495 -9.53198e-14 0)
(4.49495 -4.12071e-15 0)
(4.49495 6.46878e-14 0)
(4.49495 5.92402e-14 0)
(4.49495 1.10986e-14 0)
(4.49495 -5.46661e-14 0)
(4.49495 -1.43735e-13 0)
(4.49495 -1.88439e-13 0)
(4.49495 -1.5585e-13 0)
(4.49495 -9.82303e-14 0)
(4.49495 -1.51226e-13 0)
(4.49495 -2.22302e-13 0)
(4.49495 -2.31183e-13 0)
(4.49495 -8.92354e-14 0)
(4.49495 -4.16105e-14 0)
(4.49495 -4.96286e-14 0)
(4.49495 -5.59363e-14 0)
(4.49495 -1.12349e-13 0)
(4.49495 -1.91243e-13 0)
(4.49495 -1.50353e-13 0)
(4.49495 -1.25405e-13 0)
(4.49495 -5.15089e-14 0)
(4.49495 -5.43427e-15 0)
(4.49495 -1.96567e-14 0)
(4.49495 -2.21472e-14 0)
(4.49495 3.6623e-14 0)
(4.49495 5.3996e-14 0)
(4.49495 1.25698e-13 0)
(4.49495 1.52023e-13 0)
(4.49495 9.79364e-14 0)
(4.49495 9.57832e-15 0)
(4.49495 1.19987e-14 0)
(4.49495 -3.38492e-14 0)
(4.49495 -8.81352e-14 0)
(4.49495 -7.90103e-14 0)
(4.49495 -6.10405e-14 0)
(4.49495 -5.58363e-14 0)
(4.49495 -1.29779e-13 0)
(4.49495 -1.3337e-13 0)
(4.49495 -1.37697e-13 0)
(4.49495 -9.21426e-14 0)
(4.49495 -4.52812e-14 0)
(4.49495 5.21757e-15 0)
(4.49495 3.44826e-14 0)
(4.49495 3.21155e-14 0)
(4.49495 -3.62363e-14 0)
(4.49495 -1.38601e-13 0)
(4.49495 -2.43412e-13 0)
(4.49495 -2.38891e-13 0)
(4.49495 -2.12457e-13 0)
(4.49495 -1.22988e-13 0)
(4.49495 -6.86819e-14 0)
(4.49495 -7.51563e-14 0)
(4.49495 -3.6663e-14 0)
(4.49495 -7.87469e-15 0)
(4.49495 -3.79532e-14 0)
(4.49495 -5.46794e-14 0)
(4.49495 -1.03184e-13 0)
(4.49495 -5.69498e-14 0)
(4.49495 -4.16405e-14 0)
(4.49495 -2.94084e-14 0)
(4.49495 -5.63097e-15 0)
(4.49495 2.18138e-14 0)
(4.49495 -1.95367e-15 0)
(4.49495 3.33324e-14 0)
(4.49495 1.32169e-13 0)
(4.49495 2.21318e-13 0)
(4.49495 2.63602e-13 0)
(4.49495 2.20121e-13 0)
(4.49495 1.1175e-13 0)
(4.49495 -1.86499e-14 0)
(4.49495 -2.36207e-14 0)
(4.49495 -2.06736e-14 0)
(4.49495 -4.10704e-14 0)
(4.49495 -5.02954e-14 0)
(4.49495 4.17405e-15 0)
(4.49495 4.37009e-14 0)
(4.49495 6.44678e-14 0)
(4.49495 4.93919e-14 0)
(4.49495 2.1387e-14 0)
(4.49495 -1.49226e-14 0)
(4.49495 8.23476e-15 0)
(4.49495 6.97787e-14 0)
(4.49495 1.15423e-13 0)
(4.49495 1.28119e-13 0)
(4.49495 7.15457e-14 0)
(4.49495 7.75167e-14 0)
(4.49495 7.35994e-14 0)
(4.49495 6.79051e-14 0)
(4.49495 4.64347e-14 0)
(4.49495 4.27407e-14 0)
(4.49495 6.70849e-14 0)
(4.49495 3.35825e-14 0)
(4.49495 -5.65764e-15 0)
(4.49495 -3.73131e-14 0)
(4.49495 -4.11004e-14 0)
(4.49495 -9.51831e-15 0)
(4.49495 -1.59561e-14 0)
(4.49495 2.47909e-14 0)
(4.49495 3.12621e-14 0)
(4.49495 3.94568e-14 0)
(4.49495 4.50811e-14 0)
(4.49495 4.11471e-14 0)
(4.49495 2.11837e-14 0)
(4.49495 2.37708e-14 0)
(4.49495 8.19508e-14 0)
(4.49495 2.04202e-13 0)
(4.49495 2.54571e-13 0)
(4.49495 2.28906e-13 0)
(4.49495 1.9518e-13 0)
(4.49495 2.83716e-15 0)
(4.49495 2.66279e-14 0)
(4.49495 5.20523e-14 0)
(4.49495 8.45313e-14 0)
(4.49495 7.68333e-14 0)
(4.49495 6.12806e-14 0)
(4.49495 1.88633e-14 0)
(4.49495 4.2674e-15 0)
(4.49495 -7.11456e-15 0)
(4.49495 3.22856e-14 0)
(4.49495 5.69198e-14 0)
(4.49495 6.80684e-14 0)
(4.49495 8.2961e-14 0)
(4.49495 1.24311e-13 0)
(4.49495 1.61558e-13 0)
(4.49495 2.06556e-13 0)
(4.49495 2.81249e-13 0)
(4.49495 2.63475e-13 0)
(4.49495 2.7161e-13 0)
(4.49495 2.80375e-13 0)
(4.49495 2.28966e-13 0)
(4.49495 7.49196e-14 0)
(4.49495 7.21458e-15 0)
(4.49495 -2.76181e-14 0)
(4.49495 -7.88603e-14 0)
(4.49495 -2.84549e-14 0)
(4.49495 9.23826e-15 0)
(4.49495 1.87299e-14 0)
(4.49495 3.00785e-14 0)
(4.49495 5.04087e-15 0)
(4.49495 -3.35491e-14 0)
(4.49495 -5.00686e-14 0)
(4.49495 -5.91435e-15 0)
(4.49495 1.42735e-13 0)
(4.49495 1.68839e-13 0)
(4.49495 1.42351e-13 0)
(4.49495 1.36534e-13 0)
(4.49495 1.07722e-13 0)
(4.49495 1.72446e-13 0)
(4.49495 2.00582e-13 0)
(4.49495 -1.08985e-14 0)
(4.49495 -1.00417e-14 0)
(4.49495 -1.94867e-14 0)
(4.49495 1.1402e-14 0)
(4.49495 2.59011e-14 0)
(4.49495 8.44813e-15 0)
(4.49495 4.31741e-15 0)
(4.49495 -8.88153e-15 0)
(4.49495 3.02719e-15 0)
(4.49495 1.27055e-14 0)
(4.49495 1.11386e-14 0)
(4.49495 -4.72648e-14 0)
(4.49495 1.12019e-15 0)
(4.49495 5.65831e-14 0)
(4.49495 8.96521e-14 0)
(4.49495 1.41454e-13 0)
(4.49495 1.52396e-13 0)
(4.49495 2.03552e-13 0)
(4.49495 1.80034e-13 0)
(4.49495 1.96734e-13 0)
(4.49495 1.95244e-13 0)
(4.49495 1.23988e-13 0)
(4.49495 2.44442e-14 0)
(4.49495 -7.718e-15 0)
(4.49495 -5.22057e-14 0)
(4.49495 -4.89051e-14 0)
(4.49495 -1.60961e-14 0)
(4.49495 2.91784e-14 0)
(4.49495 2.67713e-14 0)
(4.49495 2.96118e-14 0)
(4.49495 3.99069e-15 0)
(4.49495 -2.21472e-14 0)
(4.49495 4.45777e-14 0)
(4.49495 1.79591e-13 0)
(4.49495 1.99324e-13 0)
(4.49495 2.52514e-13 0)
(4.49495 2.10883e-13 0)
(4.49495 8.57615e-14 0)
(4.49495 7.44762e-14 0)
(4.49495 9.47113e-14 0)
(4.49495 -2.22038e-15 0)
(4.49495 -2.38508e-14 0)
(4.49495 -2.35107e-14 0)
(4.49495 -3.32457e-14 0)
(4.49495 -4.08937e-14 0)
(4.49495 5.15089e-15 0)
(4.49495 8.74418e-14 0)
(4.49495 1.21128e-13 0)
(4.49495 1.31059e-13 0)
(4.49495 6.55847e-14 0)
(4.49495 -7.18591e-14 0)
(4.49495 -7.78334e-14 0)
(4.49495 -2.30273e-14 0)
(4.49495 -4.54112e-14 0)
(4.49495 -7.1259e-14 0)
(4.49495 -9.23926e-14 0)
(4.49495 -9.4443e-14 0)
(4.49495 1.68129e-14 0)
(4.49495 5.72732e-14 0)
(4.49495 3.14521e-14 0)
(4.49495 8.37478e-15 0)
(4.49495 3.63729e-14 0)
(4.49495 5.03487e-14 0)
(4.49495 -4.39643e-14 0)
(4.49495 -6.60081e-14 0)
(4.49495 -9.31861e-14 0)
(4.49495 -6.64015e-14 0)
(4.49495 4.8225e-14 0)
(4.49495 4.53912e-14 0)
(4.49495 8.80285e-14 0)
(4.49495 2.32097e-13 0)
(4.49495 2.85036e-13 0)
(4.49495 2.53864e-13 0)
(4.49495 1.36674e-13 0)
(4.49495 1.28409e-13 0)
(4.49495 1.14596e-13 0)
(4.49495 1.06142e-13 0)
(4.49495 9.61833e-14 0)
(4.49495 -3.49427e-14 0)
(4.49495 -5.70108e-14 0)
(4.49495 4.01569e-14 0)
(4.49495 3.89101e-14 0)
(4.49495 2.77648e-14 0)
(4.49495 2.58111e-14 0)
(4.49495 5.5843e-14 0)
(4.49495 1.19647e-13 0)
(4.49495 1.02244e-13 0)
(4.49495 9.49897e-14 0)
(4.49495 7.3616e-14 0)
(4.49495 8.71384e-14 0)
(4.49495 5.06321e-14 0)
(4.49495 1.12019e-14 0)
(4.49495 -7.68799e-14 0)
(4.49495 -9.87204e-14 0)
(4.49495 -9.00556e-14 0)
(4.49495 -7.76567e-14 0)
(4.49495 -7.20058e-14 0)
(4.49495 -5.62264e-14 0)
(4.49495 -2.48143e-14 0)
(4.49495 -3.80799e-14 0)
(4.49495 -1.70129e-14 0)
(4.49495 9.91838e-15 0)
(4.49495 1.29056e-14 0)
(4.49495 1.36424e-14 0)
(4.49495 6.65282e-14 0)
(4.49495 2.74381e-14 0)
(4.49495 3.95402e-14 0)
(4.49495 1.06918e-14 0)
(4.49495 1.71703e-13 0)
(4.49495 2.81275e-13 0)
(4.49495 3.57288e-13 0)
(4.49495 2.99288e-13 0)
(4.49495 1.07595e-13 0)
(4.49495 4.83017e-14 0)
(4.49495 3.6393e-14 0)
(4.49495 -1.32656e-14 0)
(4.49495 -7.24525e-14 0)
(4.49495 -3.1042e-14 0)
(4.49495 -5.0462e-14 0)
(4.49495 -4.649e-14 0)
(4.49495 -3.21856e-14 0)
(4.49495 -4.00236e-14 0)
(4.49495 -4.16372e-14 0)
(4.49495 -4.0597e-14 0)
(4.49495 -2.44642e-14 0)
(4.49495 2.04102e-14 0)
(4.49495 3.30924e-14 0)
(4.49495 3.96035e-14 0)
(4.49495 2.92084e-14 0)
(4.49495 6.86819e-14 0)
(4.49495 1.05292e-13 0)
(4.49495 1.53093e-14 0)
(4.49495 -5.64764e-15 0)
(4.49495 1.75564e-14 0)
(4.49495 2.06769e-14 0)
(4.49495 4.62747e-14 0)
(4.49495 6.88319e-14 0)
(4.49495 2.55711e-14 0)
(4.49495 5.85768e-15 0)
(4.49495 2.48376e-15 0)
(4.49495 2.58345e-14 0)
(4.49495 5.3856e-14 0)
(4.49495 3.21856e-14 0)
(4.49495 2.24739e-14 0)
(4.49495 4.37042e-14 0)
(4.49495 7.99005e-14 0)
(4.49495 4.44743e-14 0)
(4.49495 4.51345e-14 0)
(4.49495 1.05548e-13 0)
(4.49495 1.34913e-13 0)
(4.49495 1.16023e-13 0)
(4.49495 9.71201e-14 0)
(4.49495 4.78383e-14 0)
(4.49495 -9.58499e-15 0)
(4.49495 -7.5563e-14 0)
(4.49495 -1.20971e-13 0)
(4.49495 -2.06242e-13 0)
(4.49495 -2.47263e-13 0)
(4.49495 -1.45882e-13 0)
(4.49495 5.07048e-15 0)
(4.49495 -2.9235e-14 0)
(4.49495 -1.62195e-14 0)
(4.49495 7.66799e-15 0)
(4.49495 -6.00104e-16 0)
(4.49495 -9.29927e-14 0)
(4.49495 -1.49046e-13 0)
(4.49495 -1.18517e-13 0)
(4.49495 -8.40578e-14 0)
(4.49495 -2.38941e-14 0)
(4.49495 -4.38076e-15 0)
(4.49495 9.10824e-15 0)
(4.49495 -2.37841e-14 0)
(4.49495 2.02468e-14 0)
(4.49495 5.31792e-14 0)
(4.49495 4.63547e-14 0)
(4.49495 2.93917e-14 0)
(4.49495 9.10157e-16 0)
(4.49495 -9.02756e-14 0)
(4.49495 -1.19917e-13 0)
(4.49495 -1.28962e-13 0)
(4.49495 -1.24768e-13 0)
(4.49495 2.09036e-14 0)
(4.49495 9.94638e-14 0)
(4.49495 9.68934e-14 0)
(4.49495 7.80635e-14 0)
(4.49495 3.36691e-14 0)
(4.49495 -4.16272e-14 0)
(4.49495 1.81131e-14 0)
(4.49495 6.04638e-14 0)
(4.49495 -3.34624e-14 0)
(4.49495 -1.23211e-13 0)
(4.49495 -1.10396e-13 0)
(4.49495 -1.24401e-13 0)
(4.49495 -1.01651e-13 0)
(4.49495 -1.22595e-13 0)
(4.49495 -1.82605e-13 0)
(4.49495 -1.9531e-13 0)
(4.49495 -1.85085e-13 0)
(4.49495 -1.04768e-13 0)
(4.49495 -5.72296e-14 0)
(4.49495 4.51678e-14 0)
(4.49495 5.94636e-14 0)
(4.49495 5.25457e-14 0)
(4.49495 4.8435e-14 0)
(4.49495 2.91584e-14 0)
(4.49495 2.72414e-14 0)
(4.49495 -1.77964e-14 0)
(4.49495 -4.53578e-14 0)
(4.49495 -2.99385e-14 0)
(4.49495 -2.74347e-14 0)
(4.49495 1.07485e-14 0)
(4.49495 4.95986e-14 0)
(4.49495 4.59813e-14 0)
(4.49495 -3.11454e-14 0)
(4.49495 -4.55745e-14 0)
(4.49495 -2.48776e-14 0)
(4.49495 -6.51146e-14 0)
(4.49495 -1.01214e-13 0)
(4.49495 -9.647e-14 0)
(4.49495 -4.86684e-14 0)
(4.49495 -1.99234e-14 0)
(4.49495 2.53077e-14 0)
(4.49495 1.21254e-13 0)
(4.49495 2.3098e-13 0)
(4.49495 1.38057e-13 0)
(4.49495 -3.27357e-14 0)
(4.49495 -2.35807e-14 0)
(4.49495 -2.82315e-14 0)
(4.49495 -6.21774e-15 0)
(4.49495 3.05886e-14 0)
(4.49495 -1.63395e-14 0)
(4.49495 -7.24625e-14 0)
(4.49495 -1.44995e-13 0)
(4.49495 -1.50639e-13 0)
(4.49495 -1.16167e-13 0)
(4.49495 -1.11656e-13 0)
(4.49495 -9.24226e-14 0)
(4.49495 -3.23956e-14 0)
(4.49495 -2.47376e-15 0)
(4.49495 4.5624e-16 0)
(4.49495 1.68862e-14 0)
(4.49495 6.54446e-15 0)
(4.49495 4.89751e-15 0)
(4.49495 2.17771e-14 0)
(4.49495 1.1586e-13 0)
(4.49495 1.24655e-13 0)
(4.49495 7.749e-14 0)
(4.49495 4.55812e-14 0)
(4.49495 3.6773e-14 0)
(4.49495 2.98118e-14 0)
(4.49495 8.84153e-15 0)
(4.49495 5.63864e-14 0)
(4.49495 5.36193e-14 0)
(4.49495 2.55377e-14 0)
(4.49495 -2.73614e-14 0)
(4.49495 -1.3599e-14 0)
(4.49495 1.77197e-14 0)
(4.49495 1.09652e-14 0)
(4.49495 -1.98401e-14 0)
(4.49495 6.26008e-14 0)
(4.49495 8.68717e-14 0)
(4.49495 1.04681e-13 0)
(4.49495 1.24632e-13 0)
(4.49495 1.25215e-13 0)
(4.49495 4.8435e-14 0)
(4.49495 6.14439e-14 0)
(4.49495 2.28306e-14 0)
(4.49495 -8.40145e-16 0)
(4.49495 5.90769e-15 0)
(4.49495 -9.51164e-15 0)
(4.49495 -5.65764e-14 0)
(4.49495 -1.08262e-13 0)
(4.49495 -1.18487e-13 0)
(4.49495 -1.31359e-13 0)
(4.49495 -1.17537e-13 0)
(4.49495 2.22672e-14 0)
(4.49495 4.90485e-14 0)
(4.49495 2.35641e-14 0)
(4.49495 -3.12221e-14 0)
(4.49495 -5.6711e-14 0)
(4.49495 -1.38624e-14 0)
(4.49495 -5.60764e-15 0)
(4.49495 -4.81416e-15 0)
(4.49495 1.06752e-14 0)
(4.49495 1.10186e-14 0)
(4.49495 -6.18607e-14 0)
(4.49495 -4.35942e-14 0)
(4.49495 -1.02684e-15 0)
(4.49495 -5.771e-15 0)
(4.49495 -1.24055e-14 0)
(4.49495 -3.43826e-14 0)
(4.49495 -2.75581e-14 0)
(4.49495 5.88435e-15 0)
(4.49495 2.11903e-14 0)
(4.49495 3.30657e-14 0)
(4.49495 3.60062e-15 0)
(4.49495 1.81031e-15 0)
(4.49495 3.12254e-14 0)
(4.49495 1.87432e-14 0)
(4.49495 2.51843e-14 0)
(4.49495 4.07904e-14 0)
(4.49495 -2.87516e-14 0)
(4.49495 -2.98418e-14 0)
(4.49495 9.87837e-15 0)
(4.49495 3.01285e-14 0)
(4.49495 9.54131e-14 0)
(4.49495 9.34395e-14 0)
(4.49495 3.22189e-14 0)
(4.49495 -3.00719e-15 0)
(4.49495 3.4606e-14 0)
(4.49495 -3.17521e-14 0)
(4.49495 -6.56113e-14 0)
(4.49495 -7.20858e-14 0)
(4.49495 -3.37858e-14 0)
(4.49495 2.93884e-14 0)
(4.49495 1.17377e-13 0)
(4.49495 1.00434e-13 0)
(4.49495 2.8825e-14 0)
(4.49495 -2.89883e-14 0)
(4.49495 -1.21256e-13 0)
(4.49495 -1.65529e-14 0)
(4.49495 -3.94401e-14 0)
(4.49495 -3.97902e-14 0)
(4.49495 -8.04306e-14 0)
(4.49495 -1.16844e-13 0)
(4.49495 -7.90336e-14 0)
(4.49495 -3.14688e-14 0)
(4.49495 -3.30157e-14 0)
(4.49495 -6.91086e-14 0)
(4.49495 -1.01808e-13 0)
(4.49495 -8.80752e-14 0)
(4.49495 -8.74584e-14 0)
(4.49495 -8.41712e-14 0)
(4.49495 -7.97671e-14 0)
(4.49495 -3.89667e-14 0)
(4.49495 -3.54695e-14 0)
(4.49495 -6.71116e-14 0)
(4.49495 -5.5863e-14 0)
(4.49495 -5.17156e-14 0)
(4.49495 -3.03786e-14 0)
(4.49495 -6.06771e-15 0)
(4.49495 -2.58045e-14 0)
(4.49495 -2.5311e-14 0)
(4.49495 4.82317e-14 0)
(4.49495 1.32136e-13 0)
(4.49495 1.30399e-13 0)
(4.49495 1.47475e-13 0)
(4.49495 1.34353e-13 0)
(4.49495 7.42262e-14 0)
(4.49495 3.71497e-14 0)
(4.49495 3.57062e-14 0)
(4.49495 6.29942e-14 0)
(4.49495 8.63983e-14 0)
(4.49495 6.89686e-14 0)
(4.49495 1.19721e-13 0)
(4.49495 1.60448e-13 0)
(4.49495 7.09156e-14 0)
(4.49495 -6.05505e-14 0)
(4.49495 -6.89386e-14 0)
(4.49495 -7.70338e-14 0)
(4.49495 3.85066e-15 0)
(4.49495 -1.61995e-14 0)
(4.49495 -2.72947e-14 0)
(4.49495 -3.87067e-14 0)
(4.49495 -2.95351e-14 0)
(4.49495 2.08736e-14 0)
(4.49495 -2.07603e-14 0)
(4.49495 -6.73583e-14 0)
(4.49495 -8.17341e-14 0)
(4.49495 -1.24895e-13 0)
(4.49495 -1.36077e-13 0)
(4.49495 -1.41448e-13 0)
(4.49495 -1.08892e-13 0)
(4.49495 -8.03572e-14 0)
(4.49495 -6.89652e-14 0)
(4.49495 -3.47327e-14 0)
(4.49495 6.29109e-15 0)
(4.49495 -4.2344e-14 0)
(4.49495 -4.84284e-14 0)
(4.49495 -2.61512e-14 0)
(4.49495 3.10454e-14 0)
(4.49495 7.18891e-14 0)
(4.49495 9.05056e-14 0)
(4.49495 1.46102e-13 0)
(4.49495 1.45555e-13 0)
(4.49495 1.43822e-13 0)
(4.49495 1.7543e-13 0)
(4.49495 2.41808e-13 0)
(4.49495 4.88118e-14 0)
(4.49495 -2.08669e-14 0)
(4.49495 9.83503e-16 0)
(4.49495 6.12973e-14 0)
(4.49495 1.152e-13 0)
(4.49495 6.86052e-14 0)
(4.49495 5.90369e-14 0)
(4.49495 9.78102e-14 0)
(4.49495 1.59828e-14 0)
(4.49495 -2.85449e-14 0)
(4.49495 -1.89833e-14 0)
(4.49495 -6.61634e-14 0)
(4.49495 2.04135e-14 0)
(4.49495 1.914e-14 0)
(4.49495 2.01201e-14 0)
(4.49495 3.11287e-14 0)
(4.49495 2.62279e-14 0)
(4.49495 1.22021e-14 0)
(4.49495 -7.62265e-14 0)
(4.49495 -1.34833e-13 0)
(4.49495 -1.22434e-13 0)
(4.49495 -9.669e-14 0)
(4.49495 -1.08432e-13 0)
(4.49495 -9.16225e-14 0)
(4.49495 -3.4896e-14 0)
(4.49495 -3.09387e-15 0)
(4.49495 -4.2424e-14 0)
(4.49495 -6.58314e-14 0)
(4.49495 -4.45377e-14 0)
(4.49495 -2.53077e-14 0)
(4.49495 9.61833e-15 0)
(4.49495 9.33495e-16 0)
(4.49495 1.48992e-14 0)
(4.49495 7.5313e-15 0)
(4.49495 4.44743e-15 0)
(4.49495 -2.07036e-14 0)
(4.49495 -4.75682e-14 0)
(4.49495 -2.34907e-14 0)
(4.49495 6.86118e-14 0)
(4.49495 1.43791e-13 0)
(4.49495 6.5758e-14 0)
(4.49495 4.65414e-14 0)
(4.49495 4.33408e-15 0)
(4.49495 2.28039e-14 0)
(4.49495 5.89769e-15 0)
(4.49495 -2.83882e-14 0)
(4.49495 -1.08352e-13 0)
(4.49495 -1.24488e-13 0)
(4.49495 9.60833e-15 0)
(4.49495 1.87832e-14 0)
(4.49495 2.19205e-14 0)
(4.49495 3.78876e-15 0)
(4.49495 -6.46112e-15 0)
(4.49495 1.66329e-14 0)
(4.49495 2.97051e-14 0)
(4.49495 3.74765e-14 0)
(4.49495 2.4981e-14 0)
(4.49495 3.73398e-16 0)
(4.49495 -2.1207e-14 0)
(4.49495 -7.11556e-14 0)
(4.49495 -5.97837e-14 0)
(4.49495 -4.23306e-14 0)
(4.49495 -3.33491e-14 0)
(4.49495 -4.37409e-14 0)
(4.49495 -2.70813e-14 0)
(4.49495 3.16588e-14 0)
(4.49495 1.38424e-14 0)
(4.49495 -5.83201e-14 0)
(4.49495 -1.1349e-13 0)
(4.49495 -7.08256e-14 0)
(4.49495 -5.76833e-14 0)
(4.49495 -8.41079e-14 0)
(4.49495 -1.13093e-13 0)
(4.49495 -9.79336e-14 0)
(4.49495 -8.0914e-14 0)
(4.49495 -3.89334e-14 0)
(4.49495 -2.1137e-14 0)
(4.49495 -4.54745e-14 0)
(4.49495 -1.30789e-14 0)
(4.49495 -7.23458e-15 0)
(4.49495 5.92936e-14 0)
(4.49495 2.16304e-14 0)
(4.49495 -7.98605e-14 0)
(4.49495 -1.29606e-13 0)
(4.49495 -1.03295e-13 0)
(4.49495 -9.38129e-14 0)
(4.49495 -1.01954e-13 0)
(4.49495 -9.49064e-14 0)
(4.49495 -1.28786e-13 0)
(4.49495 -5.02653e-14 0)
(4.49495 -4.54045e-14 0)
(4.49495 -3.00954e-14 0)
(4.49495 -1.64495e-14 0)
(4.49495 1.15553e-14 0)
(4.49495 1.47859e-14 0)
(4.49495 2.82249e-14 0)
(4.49495 1.02951e-14 0)
(4.49495 9.59166e-15 0)
(4.49495 5.68231e-14 0)
(4.49495 6.95453e-15 0)
(4.49495 -3.30257e-14 0)
(4.49495 -9.8617e-15 0)
(4.49495 -1.59928e-14 0)
(4.49495 -1.919e-14 0)
(4.49495 -3.43226e-14 0)
(4.49495 -5.36093e-14 0)
(4.49495 -3.63763e-14 0)
(4.49495 -3.22722e-14 0)
(4.49495 -1.35183e-13 0)
(4.49495 -1.59591e-13 0)
(4.49495 -1.3555e-13 0)
(4.49495 -1.30683e-13 0)
(4.49495 -1.41081e-13 0)
(4.49495 -8.31344e-14 0)
(4.49495 -1.7603e-14 0)
(4.49495 3.79832e-14 0)
(4.49495 5.61497e-14 0)
(4.49495 5.97737e-14 0)
(4.49495 3.2749e-14 0)
(4.49495 -4.33408e-14 0)
(4.49495 -1.02428e-13 0)
(4.49495 -1.9101e-13 0)
(4.49495 -2.1424e-13 0)
(4.49495 -2.02548e-13 0)
(4.49495 -1.89609e-13 0)
(4.49495 -1.5598e-13 0)
(4.49495 -7.36427e-14 0)
(4.49495 -6.56747e-14 0)
(4.49495 -7.69466e-14 0)
(4.49495 -9.06023e-14 0)
(4.49495 -9.70268e-14 0)
(4.49495 -4.55781e-14 0)
(4.49495 1.66362e-14 0)
(4.49495 2.20938e-14 0)
(4.49495 -4.73082e-15 0)
(4.49495 -4.09004e-14 0)
(4.49495 -5.75733e-14 0)
(4.49495 -4.48077e-14 0)
(4.49495 1.37124e-14 0)
(4.49495 4.47211e-14 0)
(4.49495 2.12637e-14 0)
(4.49495 5.46128e-14 0)
(4.49495 6.03638e-14 0)
(4.49495 5.28125e-14 0)
(4.49495 -1.30623e-14 0)
(4.49495 -1.44578e-13 0)
(4.49495 -1.48046e-13 0)
(4.49495 -1.60498e-13 0)
(4.49495 -9.48064e-14 0)
(4.49495 -8.5108e-14 0)
(4.49495 -4.78016e-14 0)
(4.49495 -1.79031e-14 0)
(4.49495 -5.73599e-14 0)
(4.49495 -6.24708e-14 0)
(4.49495 -2.3414e-14 0)
(4.49495 -1.96234e-14 0)
(4.49495 3.18055e-15 0)
(4.49495 4.80083e-14 0)
(4.49495 6.44745e-14 0)
(4.49495 7.96037e-14 0)
(4.49495 2.56878e-14 0)
(4.49495 -1.52293e-14 0)
(4.49495 2.09403e-14 0)
(4.49495 2.18004e-14 0)
(4.49495 1.96034e-15 0)
(4.49495 1.01884e-14 0)
(4.49495 1.15573e-13 0)
(4.49495 1.05025e-13 0)
(4.49495 -6.10372e-14 0)
(4.49495 -2.45152e-13 0)
(4.49495 -2.7193e-13 0)
(4.49495 -2.97921e-13 0)
(4.49495 -1.00017e-15 0)
(4.49495 -3.04353e-14 0)
(4.49495 -5.36559e-14 0)
(4.49495 -7.67299e-14 0)
(4.49495 -6.12839e-14 0)
(4.49495 -6.87719e-14 0)
(4.49495 -3.2839e-15 0)
(4.49495 3.33124e-14 0)
(4.49495 5.05987e-14 0)
(4.49495 1.66055e-13 0)
(4.49495 2.02028e-13 0)
(4.49495 1.27112e-13 0)
(4.49495 1.43125e-14 0)
(4.49495 -4.43977e-14 0)
(4.49495 -6.9492e-14 0)
(4.49495 -7.34794e-15 0)
(4.49495 1.1352e-13 0)
(4.49495 1.37077e-13 0)
(4.49495 1.19211e-13 0)
(4.49495 4.93719e-14 0)
(4.49495 3.15655e-14 0)
(4.49495 -3.2949e-14 0)
(4.49495 -3.03086e-14 0)
(4.49495 1.55193e-14 0)
(4.49495 1.07719e-14 0)
(4.49495 -3.63129e-14 0)
(4.49495 -5.84368e-14 0)
(4.49495 -5.15722e-14 0)
(4.49495 -5.13422e-16 0)
(4.49495 1.70463e-14 0)
(4.49495 -1.10019e-16 0)
(4.49495 -2.74714e-15 0)
(4.49495 1.07975e-13 0)
(4.49495 1.27919e-13 0)
(4.49495 1.27542e-13 0)
(4.49495 4.4231e-14 0)
(4.49495 -5.29791e-14 0)
(4.49495 -9.52264e-14 0)
(4.49495 -3.26023e-14 0)
(4.49495 -5.27565e-14 0)
(4.49495 -2.09203e-14 0)
(4.49495 -3.70564e-14 0)
(4.49495 1.52026e-14 0)
(4.49495 7.52797e-14 0)
(4.49495 6.5848e-14 0)
(4.49495 2.12937e-14 0)
(4.49495 -4.63547e-14 0)
(4.49495 -6.02771e-14 0)
(4.49495 -6.70116e-15 0)
(4.49495 1.86432e-14 0)
(4.49495 1.14656e-13 0)
(4.49495 1.39911e-13 0)
(4.49495 1.20544e-13 0)
(4.49495 8.57981e-14 0)
(4.49495 8.91354e-14 0)
(4.49495 1.11873e-13 0)
(4.49495 1.06705e-13 0)
(4.49495 8.7095e-14 0)
(4.49495 2.85383e-14 0)
(4.49495 7.25792e-15 0)
(4.49495 2.43309e-14 0)
(4.49495 4.40343e-14 0)
(4.49495 1.27689e-15 0)
(4.49495 -9.43496e-16 0)
(4.49495 -5.95103e-14 0)
(4.49495 -1.08029e-13 0)
(4.49495 -1.28446e-13 0)
(4.49495 -1.03581e-13 0)
(4.49495 1.62361e-15 0)
(4.49495 4.44477e-14 0)
(4.49495 5.55996e-14 0)
(4.49495 9.2596e-14 0)
(4.49495 8.10373e-14 0)
(4.49495 1.03144e-13 0)
(4.49495 1.07155e-13 0)
(4.49495 9.72401e-14 0)
(4.49495 2.65379e-14 0)
(4.49495 -2.21872e-14 0)
(4.49495 -1.27922e-14 0)
(4.49495 1.54627e-15 0)
(4.49495 1.82898e-14 0)
(4.49495 1.22021e-14 0)
(4.49495 1.49492e-14 0)
(4.49495 5.85201e-14 0)
(4.49495 4.39109e-14 0)
(4.49495 -2.41375e-15 0)
(4.49495 -6.7685e-14 0)
(4.49495 -4.80916e-14 0)
(4.49495 -3.38525e-14 0)
(4.49495 -7.1169e-14 0)
(4.49495 -6.16106e-14 0)
(4.49495 -4.42743e-14 0)
(4.49495 3.05219e-14 0)
(4.49495 1.39337e-13 0)
(4.49495 1.02374e-13 0)
(4.49495 9.19592e-14 0)
(4.49495 3.61229e-14 0)
(4.49495 -4.00502e-14 0)
(4.49495 -3.91234e-14 0)
(4.49495 -5.87501e-14 0)
(4.49495 -9.79169e-14 0)
(4.49495 -7.54764e-14 0)
(4.49495 -5.08821e-14 0)
(4.49495 -7.36561e-14 0)
(4.49495 -1.25675e-13 0)
(4.49495 -1.94854e-13 0)
(4.49495 -2.03912e-13 0)
(4.49495 -9.66967e-14 0)
(4.49495 1.09086e-14 0)
(4.49495 3.81899e-14 0)
(4.49495 3.92201e-14 0)
(4.49495 4.21406e-14 0)
(4.49495 -1.93233e-14 0)
(4.49495 -4.74482e-14 0)
(4.49495 -1.7113e-14 0)
(4.49495 6.75117e-15 0)
(4.49495 -2.1237e-14 0)
(4.49495 -7.31826e-14 0)
(4.49495 -1.1629e-13 0)
(4.49495 -5.65793e-14 0)
(4.49495 -5.68431e-15 0)
(4.49495 -2.02268e-14 0)
(4.49495 -6.5428e-14 0)
(4.49495 -8.7075e-14 0)
(4.49495 -6.61381e-14 0)
(4.49495 -1.23088e-14 0)
(4.49495 7.41995e-14 0)
(4.49495 9.80869e-14 0)
(4.49495 6.01737e-14 0)
(4.49495 5.76766e-15 0)
(4.49495 -5.89402e-14 0)
(4.49495 -3.45693e-14 0)
(4.49495 7.57297e-14 0)
(4.49495 1.11713e-13 0)
(4.49495 1.149e-13 0)
(4.49495 6.68349e-14 0)
(4.49495 3.31757e-14 0)
(4.49495 -2.03735e-14 0)
(4.49495 -3.98569e-14 0)
(4.49495 -3.80432e-14 0)
(4.49495 -2.06736e-14 0)
(4.49495 -3.41759e-14 0)
(4.49495 -6.45411e-14 0)
(4.49495 -1.68662e-14 0)
(4.49495 2.04535e-14 0)
(4.49495 1.58827e-14 0)
(4.49495 1.40024e-16 0)
(4.49495 -3.2899e-14 0)
(4.49495 -4.2724e-14 0)
(4.49495 -3.79065e-15 0)
(4.49495 8.05806e-15 0)
(4.49495 -3.60062e-15 0)
(4.49495 -8.57848e-14 0)
(4.49495 -1.41251e-13 0)
(4.49495 -1.38321e-13 0)
(4.49495 -1.77084e-13 0)
(4.49495 -2.04059e-13 0)
(4.49495 -1.20094e-13 0)
(4.49495 -5.53296e-14 0)
(4.49495 6.26493e-15 0)
(4.49495 -9.52164e-15 0)
(4.49495 5.48761e-15 0)
(4.49495 2.39975e-14 0)
(4.49495 1.18821e-14 0)
(4.49495 1.49793e-14 0)
(4.49495 8.31777e-14 0)
(4.49495 1.30806e-13 0)
(4.49495 1.7527e-13 0)
(4.49495 1.57364e-13 0)
(4.49495 8.00305e-14 0)
(4.49495 3.42292e-14 0)
(4.49495 1.89499e-14 0)
(4.49495 -7.66632e-14 0)
(4.49495 -1.01754e-13 0)
(4.49495 -7.98538e-14 0)
(4.49495 -3.33391e-14 0)
(4.49495 -3.57728e-15 0)
(4.49495 -1.75064e-14 0)
(4.49495 -3.0722e-14 0)
(4.49495 -2.11637e-14 0)
(4.49495 3.31357e-14 0)
(4.49495 5.56596e-14 0)
(4.49495 3.28557e-14 0)
(4.49495 3.59262e-14 0)
(4.49495 4.81516e-14 0)
(4.49495 5.13089e-14 0)
(4.49495 7.23525e-14 0)
(4.49495 -3.77532e-14 0)
(4.49495 -4.17972e-14 0)
(4.49495 -1.78798e-14 0)
(4.49495 -2.76448e-14 0)
(4.49495 -7.22558e-14 0)
(4.49495 -7.61131e-14 0)