/*--------------------------------*- C++ -*----------------------------------*\
| =========                 |                                                 |
| \\      /  F ield         | OpenFOAM: The Open Source CFD Toolbox           |
|  \\    /   O peration     | Version:  2206                                  |
|   \\  /    A nd           | Website:  www.openfoam.com                      |
|    \\/     M anipulation  |                                                 |
\*---------------------------------------------------------------------------*/
FoamFile
{
    version     2.0;
    format      ascii;
    arch        "LSB;label=32;scalar=64";
    class       volVectorField;
    location    "0.1";
    object      U;
}
// * * * * * * * * * * * * * * * * * * * * * * * * * * * * * * * * * * * * * //

dimensions      [0 1 -1 0 0 0 0];

internalField   nonuniform List<vector> 
4800
(
(5.70707 -3.32724e-15 0)
(5.70707 -6.82118e-15 0)
(5.70707 -2.80782e-14 0)
(5.70707 -2.9095e-14 0)
(5.70707 -3.63796e-14 0)
(5.70707 -8.98388e-14 0)
(5.70707 -1.05148e-13 0)
(5.70707 -1.1386e-13 0)
(5.70707 -9.52798e-14 0)
(5.70707 -2.78115e-14 0)
(5.70707 7.00921e-14 0)
(5.70707 1.38877e-13 0)
(5.70707 1.72113e-13 0)
(5.70707 1.58977e-13 0)
(5.70707 1.3695e-13 0)
(5.70707 8.72284e-14 0)
(5.70707 1.92267e-14 0)
(5.70707 -1.10052e-14 0)
(5.70707 -7.75267e-14 0)
(5.70707 -8.82752e-14 0)
(5.70707 -8.45779e-14 0)
(5.70707 -6.14906e-14 0)
(5.70707 -4.61613e-14 0)
(5.70707 -1.72696e-14 0)
(5.70707 1.12953e-14 0)
(5.70707 2.1257e-14 0)
(5.70707 3.89701e-14 0)
(5.70707 5.56196e-14 0)
(5.70707 1.99068e-14 0)
(5.70707 -1.03551e-14 0)
(5.70707 8.52814e-15 0)
(5.70707 7.60598e-14 0)
(5.70707 7.20158e-14 0)
(5.70707 7.08889e-14 0)
(5.70707 7.98771e-14 0)
(5.70707 7.96371e-14 0)
(5.70707 3.90467e-14 0)
(5.70707 1.38091e-14 0)
(5.70707 2.40508e-14 0)
(5.70707 2.07302e-14 0)
(5.70707 -1.33356e-16 0)
(5.70707 7.18791e-15 0)
(5.70707 -1.05318e-14 0)
(5.70707 -2.57578e-14 0)
(5.70707 -3.61862e-14 0)
(5.70707 -4.4471e-14 0)
(5.70707 -9.663e-14 0)
(5.70707 -1.20037e-13 0)
(5.70707 -8.59548e-14 0)
(5.70707 -2.10836e-14 0)
(5.70707 1.3769e-14 0)
(5.70707 7.04622e-14 0)
(5.70707 1.3787e-13 0)
(5.70707 1.65659e-13 0)
(5.70707 2.1192e-13 0)
(5.70707 1.06062e-13 0)
(5.70707 2.38675e-14 0)
(5.70707 -6.44545e-14 0)
(5.70707 -9.81069e-14 0)
(5.70707 -1.18174e-13 0)
(5.70707 -1.06352e-13 0)
(5.70707 -1.03171e-13 0)
(5.70707 -6.65015e-14 0)
(5.70707 -1.01518e-14 0)
(5.70707 -1.50693e-15 0)
(5.70707 3.38792e-14 0)
(5.70707 8.31477e-14 0)
(5.70707 1.172e-13 0)
(5.70707 1.06802e-13 0)
(5.70707 8.26176e-14 0)
(5.70707 9.646e-14 0)
(5.70707 9.82636e-14 0)
(5.70707 7.5143e-14 0)
(5.70707 7.75634e-14 0)
(5.70707 2.00008e-13 0)
(5.70707 1.40544e-13 0)
(5.70707 -1.01017e-15 0)
(5.70707 -2.24839e-14 0)
(5.70707 -2.65713e-15 0)
(5.70707 7.87848e-17 0)
(5.70707 2.6748e-14 0)
(5.70707 3.52728e-14 0)
(5.70707 9.20492e-15 0)
(5.70707 -7.85136e-15 0)
(5.70707 -4.35409e-15 0)
(5.70707 2.22905e-14 0)
(5.70707 5.70599e-14 0)
(5.70707 3.50361e-14 0)
(5.70707 1.27422e-14 0)
(5.70707 -2.85316e-14 0)
(5.70707 -1.59528e-14 0)
(5.70707 -7.68466e-15 0)
(5.70707 -2.38241e-14 0)
(5.70707 -3.47493e-14 0)
(5.70707 -2.03335e-14 0)
(5.70707 4.40076e-16 0)
(5.70707 2.40942e-14 0)
(5.70707 5.29191e-14 0)
(5.70707 7.80001e-14 0)
(5.70707 6.06038e-14 0)
(5.70707 9.79169e-15 0)
(5.70707 -4.55479e-14 0)
(5.70707 -6.31276e-14 0)
(5.70707 -5.63131e-14 0)
(5.70707 -5.91936e-14 0)
(5.70707 4.68448e-14 0)
(5.70707 1.71273e-13 0)
(5.70707 1.88056e-13 0)
(5.70707 1.87222e-13 0)
(5.70707 2.17364e-13 0)
(5.70707 7.80001e-14 0)
(5.70707 -3.73431e-14 0)
(5.70707 -4.97419e-14 0)
(5.70707 -1.11486e-14 0)
(5.70707 1.42721e-13 0)
(5.70707 1.94564e-13 0)
(5.70707 1.80991e-13 0)
(5.70707 1.64798e-13 0)
(5.70707 9.79302e-14 0)
(5.70707 9.65528e-14 0)
(5.70707 -7.24125e-15 0)
(5.70707 1.06718e-14 0)
(5.70707 -2.10703e-15 0)
(5.70707 -3.21989e-14 0)
(5.70707 -6.41011e-14 0)
(5.70707 -5.89468e-14 0)
(5.70707 1.81098e-14 0)
(5.70707 1.04071e-13 0)
(5.70707 9.4543e-14 0)
(5.70707 7.28559e-14 0)
(5.70707 5.74032e-14 0)
(5.70707 1.914e-14 0)
(5.70707 -3.52728e-15 0)
(5.70707 -4.77249e-14 0)
(5.70707 -8.41612e-14 0)
(5.70707 -1.13866e-13 0)
(5.70707 -3.2649e-14 0)
(5.70707 1.60194e-14 0)
(5.70707 2.7288e-14 0)
(5.70707 5.35726e-14 0)
(5.70707 6.44645e-14 0)
(5.70707 1.7303e-14 0)
(5.70707 -4.86617e-14 0)
(5.70707 -7.86769e-14 0)
(5.70707 -3.6513e-14 0)
(5.70707 5.47561e-14 0)
(5.70707 1.9181e-13 0)
(5.70707 2.66813e-13 0)
(5.70707 1.99584e-13 0)
(5.70707 5.90535e-14 0)
(5.70707 1.54893e-14 0)
(5.70707 -1.25022e-14 0)
(5.70707 -7.41128e-14 0)
(5.70707 -3.96635e-14 0)
(5.70707 -4.77082e-15 0)
(5.70707 -1.57027e-14 0)
(5.70707 -1.59194e-14 0)
(5.70707 -8.83486e-16 0)
(5.70707 2.2904e-14 0)
(5.70707 6.19016e-15 0)
(5.70707 -1.01351e-14 0)
(5.70707 -1.3259e-14 0)
(5.70707 8.15474e-15 0)
(5.70707 1.96167e-14 0)
(5.70707 2.01601e-14 0)
(5.70707 1.40758e-14 0)
(5.70707 -3.41726e-15 0)
(5.70707 8.7005e-14 0)
(5.70707 1.11306e-13 0)
(5.70707 1.09392e-13 0)
(5.70707 4.55179e-14 0)
(5.70707 2.93617e-14 0)
(5.70707 5.66064e-14 0)
(5.70707 5.4036e-14 0)
(5.70707 4.8355e-14 0)
(5.70707 2.04669e-14 0)
(5.70707 -9.75302e-14 0)
(5.70707 -1.26965e-13 0)
(5.70707 -1.09599e-13 0)
(5.70707 -1.77864e-14 0)
(5.70707 6.33876e-14 0)
(5.70707 4.77449e-14 0)
(5.70707 -2.15804e-14 0)
(5.70707 -3.68097e-14 0)
(5.70707 -4.43643e-14 0)
(5.70707 -2.22272e-14 0)
(5.70707 1.28816e-13 0)
(5.70707 1.94364e-13 0)
(5.70707 2.25212e-13 0)
(5.70707 1.7113e-13 0)
(5.70707 1.00314e-13 0)
(5.70707 8.25643e-14 0)
(5.70707 2.5011e-14 0)
(5.70707 -6.83251e-14 0)
(5.70707 -1.1642e-13 0)
(5.70707 -1.19347e-13 0)
(5.70707 -5.60163e-14 0)
(5.70707 -2.25472e-14 0)
(5.70707 -3.89734e-15 0)
(5.70707 4.2989e-14 0)
(5.70707 1.98368e-15 0)
(5.70707 4.80083e-15 0)
(5.70707 3.07053e-14 0)
(5.70707 1.24788e-13 0)
(5.70707 1.83522e-13 0)
(5.70707 1.57094e-13 0)
(5.70707 6.9342e-14 0)
(5.70707 3.45093e-14 0)
(5.70707 6.3861e-14 0)
(5.70707 6.71116e-14 0)
(5.70707 4.90651e-14 0)
(5.70707 7.77168e-14 0)
(5.70707 7.98438e-14 0)
(5.70707 5.38826e-14 0)
(5.70707 -4.06637e-14 0)
(5.70707 -7.65366e-14 0)
(5.70707 -8.20042e-14 0)
(5.70707 -1.20194e-13 0)
(5.70707 -1.19537e-13 0)
(5.70707 -8.85186e-14 0)
(5.70707 -6.53313e-14 0)
(5.70707 -2.1247e-14 0)
(5.70707 4.73982e-14 0)
(5.70707 7.22391e-14 0)
(5.70707 7.65532e-14 0)
(5.70707 6.32142e-14 0)
(5.70707 -3.85033e-14 0)
(5.70707 -2.78615e-14 0)
(5.70707 1.22154e-14 0)
(5.70707 5.82101e-14 0)
(5.70707 3.53994e-14 0)
(5.70707 -1.43358e-16 0)
(5.70707 -1.15687e-15 0)
(5.70707 -2.16871e-14 0)
(5.70707 -1.78531e-14 0)
(5.70707 -2.25939e-14 0)
(5.70707 -3.59695e-14 0)
(5.70707 -4.34908e-14 0)
(5.70707 -8.74351e-14 0)
(5.70707 -9.26858e-14 0)
(5.70707 -2.84049e-15 0)
(5.70707 -4.96419e-15 0)
(5.70707 2.07903e-14 0)
(5.70707 1.40791e-14 0)
(5.70707 5.73766e-15 0)
(5.70707 -1.80031e-16 0)
(5.70707 -3.51027e-14 0)
(5.70707 -5.64964e-14 0)
(5.70707 -4.32508e-14 0)
(5.70707 -3.62596e-14 0)
(5.70707 -2.82415e-14 0)
(5.70707 -3.39359e-14 0)
(5.70707 -3.77799e-14 0)
(5.70707 -5.06954e-14 0)
(5.70707 -6.85518e-14 0)
(5.70707 -5.01553e-14 0)
(5.70707 -5.97737e-14 0)
(5.70707 -1.02374e-13 0)
(5.70707 -1.52703e-13 0)
(5.70707 -1.75637e-13 0)
(5.70707 -1.63895e-13 0)
(5.70707 -2.59245e-14 0)
(5.70707 4.38542e-14 0)
(5.70707 3.834e-14 0)
(5.70707 3.77765e-14 0)
(5.70707 -2.06902e-14 0)
(5.70707 -8.65516e-14 0)
(5.70707 -7.01788e-14 0)
(5.70707 -3.22522e-14 0)
(5.70707 2.26072e-14 0)
(5.70707 3.79065e-14 0)
(5.70707 -7.63832e-14 0)
(5.70707 -1.60504e-13 0)
(5.70707 -1.31679e-13 0)
(5.70707 -6.13506e-14 0)
(5.70707 -6.78817e-14 0)
(5.70707 -1.55147e-13 0)
(5.70707 -1.63315e-13 0)
(5.70707 -1.80038e-13 0)
(5.70707 -2.398e-13 0)
(5.70707 1.18287e-14 0)
(5.70707 -3.87067e-15 0)
(5.70707 -5.2209e-15 0)
(5.70707 -6.21641e-14 0)
(5.70707 -1.24451e-13 0)
(5.70707 -1.19701e-13 0)
(5.70707 -8.94488e-14 0)
(5.70707 -7.66232e-14 0)
(5.70707 -1.366e-13 0)
(5.70707 -1.7207e-13 0)
(5.70707 -1.60308e-13 0)
(5.70707 -1.06505e-13 0)
(5.70707 -8.8752e-14 0)
(5.70707 -2.81549e-14 0)
(5.70707 -2.23539e-14 0)
(5.70707 -4.01736e-15 0)
(5.70707 2.48843e-14 0)
(5.70707 5.35159e-14 0)
(5.70707 6.43845e-14 0)
(5.70707 2.83382e-14 0)
(5.70707 1.00451e-14 0)
(5.70707 3.88267e-14 0)
(5.70707 7.02621e-14 0)
(5.70707 7.61932e-14 0)
(5.70707 8.18008e-14 0)
(5.70707 8.14974e-14 0)
(5.70707 1.79764e-14 0)
(5.70707 -4.52411e-14 0)
(5.70707 -4.48878e-14 0)
(5.70707 -6.74717e-14 0)
(5.70707 -7.02155e-14 0)
(5.70707 -7.73767e-14 0)
(5.70707 -8.46713e-14 0)
(5.70707 -1.31273e-13 0)
(5.70707 -1.57284e-13 0)
(5.70707 -1.63565e-13 0)
(5.70707 -1.51553e-13 0)
(5.70707 -1.32366e-13 0)
(5.70707 -1.13376e-13 0)
(5.70707 -6.34121e-14 0)
(5.70707 2.6738e-15 0)
(5.70707 9.4683e-16 0)
(5.70707 -2.54877e-14 0)
(5.70707 -2.06936e-14 0)
(5.70707 -3.13154e-14 0)
(5.70707 -1.1722e-14 0)
(5.70707 5.12755e-15 0)
(5.70707 -2.83816e-14 0)
(5.70707 -7.43228e-14 0)
(5.70707 -6.35543e-14 0)
(5.70707 -4.89351e-14 0)
(5.70707 -3.02986e-14 0)
(5.70707 -1.89566e-14 0)
(5.70707 -2.30707e-14 0)
(5.70707 -1.78531e-14 0)
(5.70707 -2.50277e-14 0)
(5.70707 -8.8682e-16 0)
(5.70707 8.6815e-15 0)
(5.70707 -2.93384e-16 0)
(5.70707 -9.73501e-16 0)
(5.70707 5.40627e-14 0)
(5.70707 7.99071e-14 0)
(5.70707 2.79248e-14 0)
(5.70707 -5.0082e-14 0)
(5.70707 -5.95203e-14 0)
(5.70707 -7.09823e-14 0)
(5.70707 -2.24472e-14 0)
(5.70707 -3.21589e-14 0)
(5.70707 -1.37237e-13 0)
(5.70707 -2.08546e-13 0)
(5.70707 -2.13163e-13 0)
(5.70707 -2.17764e-13 0)
(5.70707 -1.97714e-13 0)
(5.70707 -1.66582e-13 0)
(5.70707 -1.1344e-13 0)
(5.70707 -8.63416e-14 0)
(5.70707 -4.40009e-14 0)
(5.70707 -7.48129e-15 0)
(5.70707 3.52728e-15 0)
(5.70707 -2.25913e-14 0)
(5.70707 -3.15054e-15 0)
(5.70707 6.24775e-15 0)
(5.70707 -8.8982e-15 0)
(5.70707 -1.42625e-14 0)
(5.70707 3.36291e-14 0)
(5.70707 6.05438e-14 0)
(5.70707 3.25089e-14 0)
(5.70707 1.63595e-14 0)
(5.70707 7.78134e-15 0)
(5.70707 7.17791e-15 0)
(5.70707 -2.54277e-14 0)
(5.70707 -3.38225e-14 0)
(5.70707 6.92786e-15 0)
(5.70707 3.87067e-15 0)
(5.70707 3.11387e-14 0)
(5.70707 -1.61895e-14 0)
(5.70707 -3.6843e-14 0)
(5.70707 -5.62664e-14 0)
(5.70707 -9.78069e-14 0)
(5.70707 -1.07815e-13 0)
(5.70707 -8.01938e-14 0)
(5.70707 -7.23858e-14 0)
(5.70707 -9.44063e-14 0)
(5.70707 -1.12513e-13 0)
(5.70707 -2.13567e-13 0)
(5.70707 -3.08447e-13 0)
(5.70707 -2.86303e-13 0)
(5.70707 -2.5067e-13 0)
(5.70707 -1.61878e-13 0)
(5.70707 -1.41251e-13 0)
(5.70707 -1.19631e-13 0)
(5.70707 -9.02322e-14 0)
(5.70707 -8.4668e-14 0)
(5.70707 -8.23276e-14 0)
(5.70707 -6.91119e-14 0)
(5.70707 -4.91352e-14 0)
(5.70707 -2.51277e-14 0)
(5.70707 3.33424e-14 0)
(5.70707 8.97288e-14 0)
(5.70707 9.44039e-14 0)
(5.70707 -8.29477e-15 0)
(5.70707 5.0142e-15 0)
(5.70707 1.79264e-14 0)
(5.70707 1.54093e-14 0)
(5.70707 -6.7645e-15 0)
(5.70707 -1.37857e-14 0)
(5.70707 -2.23005e-14 0)
(5.70707 -5.27091e-15 0)
(5.70707 -1.26222e-14 0)
(5.70707 -9.54498e-15 0)
(5.70707 -3.24623e-14 0)
(5.70707 -6.22307e-14 0)
(5.70707 -1.26222e-14 0)
(5.70707 4.40409e-15 0)
(5.70707 2.2994e-14 0)
(5.70707 3.72331e-14 0)
(5.70707 3.2769e-14 0)
(5.70707 2.01335e-14 0)
(5.70707 3.03152e-14 0)
(5.70707 4.87451e-14 0)
(5.70707 2.99985e-14 0)
(5.70707 5.32425e-15 0)
(5.70707 -4.36375e-14 0)
(5.70707 -7.89203e-14 0)
(5.70707 -8.40645e-14 0)
(5.70707 -1.46565e-13 0)
(5.70707 -2.24152e-13 0)
(5.70707 -2.42305e-13 0)
(5.70707 -2.19024e-13 0)
(5.70707 -1.21231e-13 0)
(5.70707 -3.48527e-14 0)
(5.70707 2.96385e-15 0)
(5.70707 -1.18754e-14 0)
(5.70707 -3.93701e-14 0)
(5.70707 -2.03935e-14 0)
(5.70707 1.67529e-14 0)
(5.70707 5.24224e-14 0)
(5.70707 5.85734e-14 0)
(5.70707 7.18824e-14 0)
(5.70707 1.01153e-13 0)
(5.70707 -1.29356e-15 0)
(5.70707 4.71748e-15 0)
(5.70707 1.90833e-14 0)
(5.70707 2.25439e-14 0)
(5.70707 -1.32756e-14 0)
(5.70707 -5.88968e-14 0)
(5.70707 -5.23424e-14 0)
(5.70707 -7.05522e-14 0)
(5.70707 -7.20658e-14 0)
(5.70707 -6.13873e-14 0)
(5.70707 -3.38192e-14 0)
(5.70707 -1.86399e-14 0)
(5.70707 -3.13688e-14 0)
(5.70707 -2.9215e-14 0)
(5.70707 -7.10123e-16 0)
(5.70707 4.69214e-14 0)
(5.70707 4.62513e-14 0)
(5.70707 4.68481e-14 0)
(5.70707 6.10372e-14 0)
(5.70707 1.17687e-13 0)
(5.70707 1.3739e-13 0)
(5.70707 1.03041e-13 0)
(5.70707 2.77648e-14 0)
(5.70707 4.97419e-15 0)
(5.70707 -1.81331e-14 0)
(5.70707 -2.74281e-14 0)
(5.70707 -6.65048e-14 0)
(5.70707 -9.34728e-14 0)
(5.70707 -1.35947e-13 0)
(5.70707 -2.32994e-13 0)
(5.70707 -2.55451e-13 0)
(5.70707 -2.00818e-13 0)
(5.70707 -1.79561e-13 0)
(5.70707 -1.45642e-13 0)
(5.70707 -2.65212e-14 0)
(5.70707 2.06669e-14 0)
(5.70707 3.76798e-14 0)
(5.70707 6.04271e-14 0)
(5.70707 8.40478e-14 0)
(5.70707 1.17149e-13 0)
(5.70707 9.94172e-15 0)
(5.70707 -4.2274e-15 0)
(5.70707 -7.05789e-15 0)
(5.70707 -3.2739e-15 0)
(5.70707 1.3619e-14 0)
(5.70707 2.40375e-15 0)
(5.70707 -1.61361e-15 0)
(5.70707 3.85733e-15 0)
(5.70707 2.3434e-14 0)
(5.70707 -2.41675e-14 0)
(5.70707 -3.58262e-14 0)
(5.70707 -1.70796e-14 0)
(5.70707 -3.22589e-14 0)
(5.70707 -2.26873e-14 0)
(5.70707 2.30306e-14 0)
(5.70707 7.89803e-14 0)
(5.70707 7.06022e-14 0)
(5.70707 7.31226e-14 0)
(5.70707 1.08419e-13 0)
(5.70707 9.91571e-14 0)
(5.70707 1.18377e-13 0)
(5.70707 1.3289e-13 0)
(5.70707 4.89418e-14 0)
(5.70707 3.90534e-14 0)
(5.70707 2.36874e-14 0)
(5.70707 -9.22159e-15 0)
(5.70707 4.4241e-15 0)
(5.70707 3.42292e-14 0)
(5.70707 2.45642e-14 0)
(5.70707 2.70047e-14 0)
(5.70707 -5.83201e-14 0)
(5.70707 -8.2891e-14 0)
(5.70707 -7.5333e-14 0)
(5.70707 -4.64714e-14 0)
(5.70707 -1.63595e-14 0)
(5.70707 2.1187e-14 0)
(5.70707 2.1297e-14 0)
(5.70707 -6.39777e-15 0)
(5.70707 -4.25573e-14 0)
(5.70707 -1.14877e-13 0)
(5.70707 1.08319e-14 0)
(5.70707 1.1452e-14 0)
(5.70707 1.59261e-14 0)
(5.70707 2.85649e-14 0)
(5.70707 3.37125e-14 0)
(5.70707 2.03902e-14 0)
(5.70707 -9.18159e-15 0)
(5.70707 3.35958e-14 0)
(5.70707 7.90637e-14 0)
(5.70707 8.73184e-14 0)
(5.70707 7.18224e-14 0)
(5.70707 6.20874e-14 0)
(5.70707 6.7375e-14 0)
(5.70707 7.06455e-14 0)
(5.70707 1.12653e-13 0)
(5.70707 1.71203e-13 0)
(5.70707 2.17374e-13 0)
(5.70707 1.13543e-13 0)
(5.70707 4.57746e-14 0)
(5.70707 2.98218e-14 0)
(5.70707 8.15574e-14 0)
(5.70707 1.20037e-13 0)
(5.70707 1.88929e-13 0)
(5.70707 2.01885e-13 0)
(5.70707 1.70189e-13 0)
(5.70707 9.28794e-14 0)
(5.70707 3.06853e-14 0)
(5.70707 1.98834e-14 0)
(5.70707 1.33756e-14 0)
(5.70707 1.15187e-14 0)
(5.70707 -2.63012e-14 0)
(5.70707 -2.59712e-14 0)
(5.70707 -2.83749e-14 0)
(5.70707 -3.31057e-15 0)
(5.70707 -5.05421e-15 0)
(5.70707 3.40959e-14 0)
(5.70707 6.67982e-14 0)
(5.70707 4.10404e-14 0)
(5.70707 -8.99322e-14 0)
(5.70707 -1.0962e-13 0)
(5.70707 -8.94821e-15 0)
(5.70707 1.36023e-15 0)
(5.70707 -2.82715e-15 0)
(5.70707 -1.31589e-14 0)
(5.70707 -2.5341e-14 0)
(5.70707 -2.54544e-14 0)
(5.70707 -2.51377e-15 0)
(5.70707 1.09452e-14 0)
(5.70707 -5.2309e-15 0)
(5.70707 3.23889e-14 0)
(5.70707 3.52994e-14 0)
(5.70707 3.00485e-14 0)
(5.70707 1.67129e-14 0)
(5.70707 1.88799e-14 0)
(5.70707 4.06404e-14 0)
(5.70707 5.08621e-14 0)
(5.70707 4.27841e-14 0)
(5.70707 3.89734e-15 0)
(5.70707 -6.77817e-14 0)
(5.70707 2.39308e-14 0)
(5.70707 4.48144e-14 0)
(5.70707 1.1672e-13 0)
(5.70707 1.39301e-13 0)
(5.70707 4.62647e-14 0)
(5.70707 3.87367e-14 0)
(5.70707 2.97185e-14 0)
(5.70707 6.63648e-14 0)
(5.70707 2.77081e-14 0)
(5.70707 3.08353e-14 0)
(5.70707 -2.82749e-14 0)
(5.70707 -9.10957e-14 0)
(5.70707 -1.09786e-13 0)
(5.70707 -9.31794e-14 0)
(5.70707 -3.43426e-14 0)
(5.70707 4.2334e-14 0)
(5.70707 6.43611e-14 0)
(5.70707 4.72082e-14 0)
(5.70707 2.86316e-14 0)
(5.70707 -1.02418e-14 0)
(5.70707 -2.13506e-14 0)
(5.70707 -1.94067e-14 0)
(5.70707 -6.26875e-14 0)
(5.70707 -7.62965e-14 0)
(5.70707 -6.19374e-14 0)
(5.70707 -6.71149e-14 0)
(5.70707 -3.69731e-14 0)
(5.70707 7.54564e-14 0)
(5.70707 9.28027e-14 0)
(5.70707 4.65614e-14 0)
(5.70707 -3.05019e-14 0)
(5.70707 -6.91786e-14 0)
(5.70707 -1.30583e-13 0)
(5.70707 -1.64175e-13 0)
(5.70707 -1.1632e-13 0)
(5.70707 -7.35527e-14 0)
(5.70707 -8.45813e-14 0)
(5.70707 -9.79369e-14 0)
(5.70707 -9.51198e-14 0)
(5.70707 -2.43075e-14 0)
(5.70707 5.79367e-14 0)
(5.70707 4.75382e-14 0)
(5.70707 5.92236e-14 0)
(5.70707 1.21654e-14 0)
(5.70707 -5.38893e-14 0)
(5.70707 -3.6693e-14 0)
(5.70707 3.2829e-14 0)
(5.70707 7.69099e-14 0)
(5.70707 8.82952e-14 0)
(5.70707 6.34443e-14 0)
(5.70707 3.20689e-14 0)
(5.70707 2.22772e-14 0)
(5.70707 8.29477e-15 0)
(5.70707 1.5626e-14 0)
(5.70707 4.32441e-14 0)
(5.70707 1.03298e-13 0)
(5.70707 1.40991e-13 0)
(5.70707 1.32296e-13 0)
(5.70707 1.27619e-13 0)
(5.70707 1.21014e-13 0)
(5.70707 8.57412e-14 0)
(5.70707 4.96086e-15 0)
(5.70707 -3.79065e-15 0)
(5.70707 -2.77048e-14 0)
(5.70707 -5.31825e-14 0)
(5.70707 -5.53496e-14 0)
(5.70707 -8.75818e-15 0)
(5.70707 2.80949e-14 0)
(5.70707 2.15504e-14 0)
(5.70707 3.34024e-14 0)
(5.70707 2.16571e-14 0)
(5.70707 -2.79715e-14 0)
(5.70707 -1.24818e-13 0)
(5.70707 -1.34693e-13 0)
(5.70707 -1.50296e-13 0)
(5.70707 -1.64935e-13 0)
(5.70707 -1.68159e-13 0)
(5.70707 -1.68872e-13 0)
(5.70707 -1.67529e-13 0)
(5.70707 -9.34195e-14 0)
(5.70707 -1.03218e-14 0)
(5.70707 2.15704e-14 0)
(5.70707 -1.71196e-14 0)
(5.70707 -5.25557e-14 0)
(5.70707 -1.07385e-13 0)
(5.70707 -1.19904e-13 0)
(5.70707 -9.90638e-14 0)
(5.70707 -9.78902e-14 0)
(5.70707 -1.41774e-13 0)
(5.70707 -1.11989e-13 0)
(5.70707 -3.72631e-14 0)
(5.70707 -3.58062e-14 0)
(5.70707 2.93417e-14 0)
(5.70707 5.18723e-14 0)
(5.70707 8.43146e-14 0)
(5.70707 1.24705e-13 0)
(5.70707 1.21478e-13 0)
(5.70707 9.47664e-14 0)
(5.70707 1.12139e-13 0)
(5.70707 1.04261e-13 0)
(5.70707 1.43888e-13 0)
(5.70707 1.80264e-14 0)
(5.70707 5.00987e-14 0)
(5.70707 4.81483e-14 0)
(5.70707 2.62879e-14 0)
(5.70707 2.90784e-14 0)
(5.70707 1.67896e-14 0)
(5.70707 -6.39444e-15 0)
(5.70707 -9.37495e-15 0)
(5.70707 8.63482e-15 0)
(5.70707 4.91151e-14 0)
(5.70707 5.17889e-14 0)
(5.70707 3.0812e-14 0)
(5.70707 3.24589e-14 0)
(5.70707 3.51861e-14 0)
(5.70707 -1.89399e-14 0)
(5.70707 -5.27224e-14 0)
(5.70707 -7.04522e-14 0)
(5.70707 -1.07015e-13 0)
(5.70707 -1.19544e-13 0)
(5.70707 -1.19747e-13 0)
(5.70707 -6.99521e-14 0)
(5.70707 -5.63797e-14 0)
(5.70707 1.31056e-14 0)
(5.70707 8.91321e-14 0)
(5.70707 5.53096e-14 0)
(5.70707 -9.13824e-15 0)
(5.70707 -3.98569e-14 0)
(5.70707 -3.91734e-14 0)
(5.70707 -8.60849e-14 0)
(5.70707 -1.20007e-13 0)
(5.70707 -1.58787e-13 0)
(5.70707 -1.02098e-13 0)
(5.70707 -4.74615e-14 0)
(5.70707 5.0332e-14 0)
(5.70707 9.46497e-14 0)
(5.70707 8.62982e-14 0)
(5.70707 3.99436e-14 0)
(5.70707 4.25674e-14 0)
(5.70707 9.03089e-14 0)
(5.70707 1.14321e-13 0)
(5.70707 -9.2916e-15 0)
(5.70707 -4.60746e-15 0)
(5.70707 2.33007e-14 0)
(5.70707 4.33708e-14 0)
(5.70707 4.62813e-14 0)
(5.70707 6.33076e-14 0)
(5.70707 3.64396e-14 0)
(5.70707 2.48676e-14 0)
(5.70707 1.51359e-14 0)
(5.70707 8.77718e-14 0)
(5.70707 1.24835e-13 0)
(5.70707 1.47219e-13 0)
(5.70707 1.24595e-13 0)
(5.70707 1.04101e-13 0)
(5.70707 4.6408e-15 0)
(5.70707 -2.29006e-14 0)
(5.70707 -2.35774e-14 0)
(5.70707 3.92801e-14 0)
(5.70707 4.8485e-14 0)
(5.70707 6.80117e-15 0)
(5.70707 -4.97653e-14 0)
(5.70707 -5.2049e-14 0)
(5.70707 -2.8745e-14 0)
(5.70707 5.20657e-14 0)
(5.70707 6.20407e-14 0)
(5.70707 -3.6513e-14 0)
(5.70707 -6.3911e-14 0)
(5.70707 -3.2769e-14 0)
(5.70707 4.46277e-14 0)
(5.70707 4.05303e-14 0)
(5.70707 1.13553e-14 0)
(5.70707 2.21772e-14 0)
(5.70707 7.38328e-14 0)
(5.70707 8.6725e-14 0)
(5.70707 1.26075e-13 0)
(5.70707 5.53062e-14 0)
(5.70707 5.56396e-14 0)
(5.70707 1.01157e-13 0)
(5.70707 1.07192e-13 0)
(5.70707 9.01714e-14 0)
(5.70707 -6.91786e-15 0)
(5.70707 -2.52344e-14 0)
(5.70707 -2.27873e-14 0)
(5.70707 -1.12386e-14 0)
(5.70707 -1.01251e-14 0)
(5.70707 4.19873e-14 0)
(5.70707 7.07689e-14 0)
(5.70707 4.29107e-14 0)
(5.70707 2.45042e-14 0)
(5.70707 3.06186e-14 0)
(5.70707 7.51796e-14 0)
(5.70707 8.34177e-14 0)
(5.70707 6.47578e-14 0)
(5.70707 -4.6608e-15 0)
(5.70707 -9.2596e-14 0)
(5.70707 -9.61766e-14 0)
(5.70707 -6.52446e-15 0)
(5.70707 1.29386e-13 0)
(5.70707 1.90993e-13 0)
(5.70707 9.80203e-14 0)
(5.70707 -2.3104e-14 0)
(5.70707 -5.70198e-14 0)
(5.70707 2.1487e-14 0)
(5.70707 1.15627e-13 0)
(5.70707 1.49926e-13 0)
(5.70707 1.45592e-13 0)
(5.70707 1.10012e-13 0)
(5.70707 8.53181e-14 0)
(5.70707 8.26776e-14 0)
(5.70707 1.87589e-13 0)
(5.70707 2.62499e-13 0)
(5.70707 2.45752e-13 0)
(5.70707 2.02838e-13 0)
(5.70707 8.64749e-14 0)
(5.70707 -1.52093e-14 0)
(5.70707 -5.65098e-14 0)
(5.70707 -4.38442e-14 0)
(5.70707 -3.13187e-14 0)
(5.70707 2.46976e-14 0)
(5.70707 2.592e-14 0)
(5.70707 2.04835e-14 0)
(5.70707 3.40259e-14 0)
(5.70707 1.82898e-14 0)
(5.70707 1.5256e-14 0)
(5.70707 3.02052e-15 0)
(5.70707 -2.16704e-16 0)
(5.70707 3.96902e-14 0)
(5.70707 3.15688e-14 0)
(5.70707 2.98085e-14 0)
(5.70707 3.80599e-14 0)
(5.70707 3.44593e-14 0)
(5.70707 -2.82949e-14 0)
(5.70707 -3.47727e-14 0)
(5.70707 -3.44493e-14 0)
(5.70707 4.0287e-14 0)
(5.70707 4.71481e-14 0)
(5.70707 2.1457e-14 0)
(5.70707 7.30126e-15 0)
(5.70707 -1.33623e-14 0)
(5.70707 -2.07736e-14 0)
(5.70707 -2.10036e-14 0)
(5.70707 -3.52861e-14 0)
(5.70707 9.16492e-14 0)
(5.70707 1.52106e-13 0)
(5.70707 1.40921e-13 0)
(5.70707 1.76464e-13 0)
(5.70707 2.45476e-13 0)
(5.70707 2.21455e-13 0)
(5.70707 1.7489e-13 0)
(5.70707 1.71576e-13 0)
(5.70707 1.44582e-13 0)
(5.70707 1.22181e-13 0)
(5.70707 5.67231e-14 0)
(5.70707 -2.1467e-14 0)
(5.70707 -4.95552e-14 0)
(5.70707 -1.39491e-14 0)
(5.70707 2.8665e-14 0)
(5.70707 7.04455e-14 0)
(5.70707 1.42141e-13 0)
(5.70707 1.88804e-13 0)
(5.70707 4.38409e-15 0)
(5.70707 2.33874e-14 0)
(5.70707 3.5026e-14 0)
(5.70707 4.49211e-14 0)
(5.70707 3.80566e-14 0)
(5.70707 4.6308e-15 0)
(5.70707 -2.32707e-14 0)
(5.70707 -3.14521e-14 0)
(5.70707 -5.32559e-14 0)
(5.70707 -7.27126e-14 0)
(5.70707 -1.02791e-13 0)
(5.70707 -9.79936e-14 0)
(5.70707 -4.32375e-14 0)
(5.70707 1.90866e-14 0)
(5.70707 2.75148e-14 0)
(5.70707 3.23156e-14 0)
(5.70707 -1.57427e-14 0)
(5.70707 -3.20255e-14 0)
(5.70707 -5.05021e-14 0)
(5.70707 -2.93851e-14 0)
(5.70707 -9.03156e-15 0)
(5.70707 -2.5231e-14 0)
(5.70707 -6.64781e-14 0)
(5.70707 -2.96018e-14 0)
(5.70707 4.54645e-14 0)
(5.70707 5.71599e-14 0)
(5.70707 8.26943e-14 0)
(5.70707 1.70736e-13 0)
(5.70707 1.91863e-13 0)
(5.70707 1.82095e-13 0)
(5.70707 8.01505e-14 0)
(5.70707 4.4141e-15 0)
(5.70707 3.50427e-14 0)
(5.70707 7.42562e-14 0)
(5.70707 1.22915e-13 0)
(5.70707 1.19661e-13 0)
(5.70707 5.6263e-14 0)
(5.70707 3.84333e-14 0)
(5.70707 2.20471e-14 0)
(5.70707 -2.5113e-14 0)
(5.70707 -1.63095e-14 0)
(5.70707 -1.96267e-14 0)
(5.70707 1.13186e-14 0)
(5.70707 2.44409e-14 0)
(5.70707 2.49243e-14 0)
(5.70707 -1.79731e-14 0)
(5.70707 -5.36326e-14 0)
(5.70707 -5.792e-14 0)
(5.70707 -6.11906e-14 0)
(5.70707 -6.24975e-14 0)
(5.70707 -6.03971e-14 0)
(5.70707 -3.29023e-14 0)
(5.70707 4.8445e-14 0)
(5.70707 8.57815e-14 0)
(5.70707 5.90569e-14 0)
(5.70707 2.64946e-14 0)
(5.70707 4.70948e-14 0)
(5.70707 6.18207e-14 0)
(5.70707 1.22685e-13 0)
(5.70707 1.19211e-13 0)
(5.70707 3.14388e-15 0)
(5.70707 -1.5696e-14 0)
(5.70707 -3.0772e-14 0)
(5.70707 7.37794e-15 0)
(5.70707 7.69466e-15 0)
(5.70707 -2.70113e-14 0)
(5.70707 1.97134e-14 0)
(5.70707 1.32019e-13 0)
(5.70707 1.69396e-13 0)
(5.70707 1.68109e-13 0)
(5.70707 7.39128e-15 0)
(5.70707 -7.26092e-14 0)
(5.70707 -4.03736e-14 0)
(5.70707 3.97935e-14 0)
(5.70707 1.27132e-13 0)
(5.70707 5.39226e-14 0)
(5.70707 -6.81918e-14 0)
(5.70707 -1.23211e-13 0)
(5.70707 -1.7084e-13 0)
(5.70707 -1.68503e-13 0)
(5.70707 -6.18774e-15 0)
(5.70707 -4.73748e-15 0)
(5.70707 -3.39525e-14 0)
(5.70707 -5.49728e-14 0)
(5.70707 -4.45977e-14 0)
(5.70707 -3.72598e-14 0)
(5.70707 -5.12422e-14 0)
(5.70707 -6.02671e-14 0)
(5.70707 -2.05302e-14 0)
(5.70707 4.36342e-14 0)
(5.70707 1.03571e-13 0)
(5.70707 1.36574e-13 0)
(5.70707 1.24368e-13 0)
(5.70707 1.51429e-13 0)
(5.70707 1.559e-13 0)
(5.70707 1.1713e-13 0)
(5.70707 1.10496e-13 0)
(5.70707 1.24982e-13 0)
(5.70707 1.18694e-13 0)
(5.70707 7.62465e-14 0)
(5.70707 3.76465e-14 0)
(5.70707 1.69029e-15 0)
(5.70707 1.10092e-13 0)
(5.70707 1.63395e-13 0)
(5.70707 1.64322e-13 0)
(5.70707 1.41291e-13 0)
(5.70707 9.50597e-14 0)
(5.70707 7.49229e-14 0)
(5.70707 7.82635e-14 0)
(5.70707 7.80568e-14 0)
(5.70707 -1.38024e-14 0)
(5.70707 -5.96503e-14 0)
(5.70707 -9.46363e-14 0)
(5.70707 -1.20477e-13 0)
(5.70707 -1.14176e-13 0)
(5.70707 -9.03289e-14 0)
(5.70707 -6.31176e-14 0)
(5.70707 -6.06571e-14 0)
(5.70707 -1.23661e-13 0)
(5.70707 -1.3934e-13 0)
(5.70707 1.46192e-14 0)
(5.70707 1.50393e-14 0)
(5.70707 -3.61929e-14 0)
(5.70707 -4.98953e-14 0)
(5.70707 -1.08419e-14 0)
(5.70707 1.40324e-14 0)
(5.70707 5.4176e-15 0)
(5.70707 -1.95167e-14 0)
(5.70707 -4.59379e-14 0)
(5.70707 -3.2939e-15 0)
(5.70707 5.42627e-14 0)
(5.70707 7.68599e-14 0)
(5.70707 1.27959e-13 0)
(5.70707 1.57951e-13 0)
(5.70707 1.42108e-13 0)
(5.70707 1.75834e-13 0)
(5.70707 1.69899e-13 0)
(5.70707 1.64032e-13 0)
(5.70707 4.02003e-14 0)
(5.70707 -9.4293e-14 0)
(5.70707 -9.54398e-14 0)
(5.70707 2.84649e-14 0)
(5.70707 1.26402e-13 0)
(5.70707 1.90663e-13 0)
(5.70707 2.31503e-13 0)
(5.70707 1.43948e-13 0)
(5.70707 7.56731e-14 0)
(5.70707 2.48976e-14 0)
(5.70707 2.21672e-14 0)
(5.70707 8.72484e-15 0)
(5.70707 -4.36742e-16 0)
(5.70707 2.60645e-14 0)
(5.70707 3.01019e-14 0)
(5.70707 -7.38194e-14 0)
(5.70707 -9.93305e-14 0)
(5.70707 -1.02318e-13 0)
(5.70707 -1.3567e-13 0)
(5.70707 -1.58607e-13 0)
(5.70707 -1.33633e-13 0)
(5.70707 -1.08584e-13 0)
(5.70707 4.16072e-15 0)
(5.70707 -1.00351e-15 0)
(5.70707 3.57928e-14 0)
(5.70707 5.87168e-14 0)
(5.70707 3.65463e-14 0)
(5.70707 3.52261e-14 0)
(5.70707 2.24239e-14 0)
(5.70707 7.20124e-15 0)
(5.70707 -4.27874e-14 0)
(5.70707 -5.90069e-14 0)
(5.70707 -6.67315e-14 0)
(5.70707 1.18354e-14 0)
(5.70707 2.96318e-14 0)
(5.70707 2.35107e-14 0)
(5.70707 1.41124e-14 0)
(5.70707 -3.50727e-14 0)
(5.70707 -4.80816e-14 0)
(5.70707 -6.45945e-14 0)
(5.70707 -6.58647e-14 0)
(5.70707 -1.00411e-13 0)
(5.70707 -9.04023e-14 0)
(5.70707 -2.96351e-14 0)
(5.70707 2.28206e-14 0)
(5.70707 3.49927e-14 0)
(5.70707 -2.30473e-14 0)
(5.70707 -8.35644e-14 0)
(5.70707 -8.84453e-14 0)
(5.70707 -7.64799e-14 0)
(5.70707 -3.6793e-14 0)
(5.70707 -1.3539e-14 0)
(5.70707 -4.47077e-14 0)
(5.70707 -1.1522e-13 0)
(5.70707 -1.27482e-13 0)
(5.70707 -1.10136e-13 0)
(5.70707 -4.32208e-14 0)
(5.70707 -4.18872e-14 0)
(5.70707 -4.85084e-14 0)
(5.70707 -4.92552e-14 0)
(5.70707 -1.06265e-13 0)
(5.70707 -1.64336e-13 0)
(5.70707 -8.63482e-15 0)
(5.70707 -8.46813e-15 0)
(5.70707 3.31724e-14 0)
(5.70707 4.09804e-14 0)
(5.70707 -3.17722e-15 0)
(5.70707 -4.64447e-14 0)
(5.70707 -4.63447e-14 0)
(5.70707 -8.64483e-15 0)
(5.70707 -1.65662e-14 0)
(5.70707 -4.63213e-14 0)
(5.70707 -8.21975e-14 0)
(5.70707 -1.80811e-13 0)
(5.70707 -2.11016e-13 0)
(5.70707 -2.10553e-13 0)
(5.70707 -1.80204e-13 0)
(5.70707 -1.92513e-13 0)
(5.70707 -1.96974e-13 0)
(5.70707 -2.06022e-13 0)
(5.70707 -1.67079e-13 0)
(5.70707 -1.1423e-13 0)
(5.70707 -7.90103e-14 0)
(5.70707 -1.00641e-13 0)
(5.70707 -1.68546e-13 0)
(5.70707 -1.60998e-13 0)
(5.70707 -1.51249e-13 0)
(5.70707 -1.3616e-13 0)
(5.70707 -1.06818e-13 0)
(5.70707 -8.54148e-14 0)
(5.70707 -8.2891e-14 0)
(5.70707 -1.44792e-14 0)
(5.70707 -1.75164e-14 0)
(5.70707 -9.4303e-14 0)
(5.70707 -9.39429e-14 0)
(5.70707 -4.27674e-14 0)
(5.70707 -4.22473e-14 0)
(5.70707 -8.11707e-14 0)
(5.70707 -8.46946e-14 0)
(5.70707 -7.96871e-14 0)
(5.70707 -6.99587e-14 0)
(5.70707 -1.16484e-13 0)
(5.70707 -7.1679e-15 0)
(5.70707 -1.28856e-14 0)
(5.70707 -4.94485e-14 0)
(5.70707 -8.80885e-14 0)
(5.70707 -7.3066e-14 0)
(5.70707 -3.16088e-14 0)
(5.70707 -2.07969e-14 0)
(5.70707 -2.49676e-14 0)
(5.70707 -7.3546e-15 0)
(5.70707 -4.24207e-14 0)
(5.70707 -7.11723e-14 0)
(5.70707 -7.59264e-14 0)
(5.70707 -1.25718e-13 0)
(5.70707 -1.68976e-13 0)
(5.70707 -1.86969e-13 0)
(5.70707 -1.84025e-13 0)
(5.70707 -2.60312e-13 0)
(5.70707 -2.98625e-13 0)
(5.70707 -2.84429e-13 0)
(5.70707 -1.10609e-13 0)
(5.70707 -1.05605e-13 0)
(5.70707 -1.70493e-13 0)
(5.70707 -2.00541e-13 0)
(5.70707 -2.27653e-13 0)
(5.70707 -2.78788e-13 0)
(5.70707 -2.38678e-13 0)
(5.70707 -1.98174e-13 0)
(5.70707 -2.16517e-13 0)
(5.70707 -1.93393e-13 0)
(5.70707 -6.47245e-14 0)
(5.70707 -2.58345e-14 0)
(5.70707 1.06685e-15 0)
(5.70707 1.49592e-14 0)
(5.70707 2.08469e-14 0)
(5.70707 -9.87871e-14 0)
(5.70707 -3.01879e-13 0)
(5.70707 -3.24506e-13 0)
(5.70707 -2.83162e-13 0)
(5.70707 -1.718e-13 0)
(5.70707 -1.05458e-13 0)
(5.70707 2.1437e-15 0)
(5.70707 -1.17687e-15 0)
(5.70707 -2.48576e-14 0)
(5.70707 -2.73847e-14 0)
(5.70707 -1.95034e-14 0)
(5.70707 8.70817e-15 0)
(5.70707 -1.08785e-14 0)
(5.70707 -1.33056e-14 0)
(5.70707 -3.36391e-15 0)
(5.70707 -1.45392e-14 0)
(5.70707 2.06036e-15 0)
(5.70707 3.64396e-15 0)
(5.70707 1.46259e-14 0)
(5.70707 1.24355e-14 0)
(5.70707 2.1167e-14 0)
(5.70707 1.46792e-14 0)
(5.70707 -7.29526e-14 0)
(5.70707 -1.21168e-13 0)
(5.70707 -1.17544e-13 0)
(5.70707 -8.70384e-14 0)
(5.70707 -6.48179e-14 0)
(5.70707 -3.51927e-14 0)
(5.70707 -1.23355e-14 0)
(5.70707 -1.10619e-14 0)
(5.70707 -2.89983e-14 0)
(5.70707 -8.45513e-14 0)
(5.70707 -1.28936e-13 0)
(5.70707 -2.11437e-13 0)
(5.70707 -2.45102e-13 0)
(5.70707 -2.15907e-13 0)
(5.70707 -2.07186e-13 0)
(5.70707 -1.47329e-13 0)
(5.70707 -1.58564e-13 0)
(5.70707 -2.0957e-13 0)
(5.70707 -2.40038e-13 0)
(5.70707 -2.24642e-13 0)
(5.70707 -2.15951e-13 0)
(5.70707 -2.07843e-13 0)
(5.70707 -1.60578e-13 0)
(5.70707 -1.08061e-13 0)
(5.70707 -2.96051e-15 0)
(5.70707 1.01718e-14 0)
(5.70707 3.37092e-14 0)
(5.70707 2.73681e-14 0)
(5.70707 1.18854e-14 0)
(5.70707 -3.15755e-14 0)
(5.70707 -7.21591e-14 0)
(5.70707 -6.00537e-14 0)
(5.70707 -4.37109e-14 0)
(5.70707 -1.02818e-14 0)
(5.70707 1.05885e-14 0)
(5.70707 2.15304e-14 0)
(5.70707 1.84132e-14 0)
(5.70707 2.51043e-15 0)
(5.70707 2.62445e-14 0)
(5.70707 5.10421e-14 0)
(5.70707 -1.77064e-14 0)
(5.70707 -4.69181e-14 0)
(5.70707 -7.1669e-14 0)
(5.70707 -4.93252e-14 0)
(5.70707 -3.01185e-14 0)
(5.70707 1.01217e-14 0)
(5.70707 2.26973e-14 0)
(5.70707 6.68982e-14 0)
(5.70707 3.84566e-14 0)
(5.70707 -6.03771e-15 0)
(5.70707 -1.41501e-13 0)
(5.70707 -2.04395e-13 0)
(5.70707 -2.02045e-13 0)
(5.70707 -1.9275e-13 0)
(5.70707 -1.84679e-13 0)
(5.70707 -1.73113e-13 0)