/*--------------------------------*- C++ -*----------------------------------*\
| =========                 |                                                 |
| \\      /  F ield         | OpenFOAM: The Open Source CFD Toolbox           |
|  \\    /   O peration     | Version:  2206                                  |
|   \\  /    A nd           | Website:  www.openfoam.com                      |
|    \\/     M anipulation  |                                                 |
\*---------------------------------------------------------------------------*/
FoamFile
{
    version     2.0;
    format      ascii;
    arch        "LSB;label=32;scalar=64";
    class       volScalarField;
    location    "0.14";
    object      T;
}
// * * * * * * * * * * * * * * * * * * * * * * * * * * * * * * * * * * * * * //

dimensions      [0 0 0 1 0 0 0];

internalField   nonuniform List<scalar> 
4800
(
1
1
1
1
1
1
1
1
1
1
1
1
1
1
1
1
1
1
1
1
1
1
1
1
1
1
1
1
1
1
1
1
1
1
1
1
1
1
1
1
1
1
1
1
1
1
1
1
1
1
1
1
1
1
1
1
1
1
1
1
1
1
1
1
1
1
1
1
1
1
1
1
1
1
1
1
1
1
1
1
1
1
1
1
1
1
1
1
1
1
1
1
1
1
1
1
1
1
1
1
1
1
1
1
1
1
1
1
1
1
1
1
1
1
1
1
1
1
1
1
1
1
1
1
1
1
1
1
1
1
1
1
1
1
1
1
1
1
1
1
1
1
1
1
1
1
1
1
1
1
1
1
1
1
1
1
1
1
1
1
1
1
1
1
1
1
1
1
1
1
1
1
1
1
1
1
1
1
1
1
1
1
1
1
1
1
1
1
1
1
1
1
1
1
1
1
1
1
1
1
1
1
1
1
1
1
1
1
1
1
1
1
1
1
1
1
1
1
1
1
1
1
1
1
1
1
1
1
1
1
1
1
1
1
1
1
1
1
1
1
1
1
1
1
1
1
1
1
1
1
1
1
1
1
1
1
1
1
1
1
1
1
1
1
1
1
1
1
1
1
1
1
1
1
1
1
1
1
1
1
1
1
1
1
1
1
1
1
1
1
1
1
1
1
1
1
1
1
1
1
1
1
1
1
1
1
1
1
1
1
1
1
1
1
1
1
1
1
1
1
1
1
1
1
1
1
1
1
1
1
1
1
1
1
1
1
1
1
1
1
1
1
1
1
1
1
1
1
1
1
1
1
1
1
1
1
1
1
1
1
1
1
1
1
1
1
1
1
1
1
1
1
1
1
1
1
1
1
1
1
1
1
1
1
1
1
1
1
1
1
1
1
1
1
1
1
1
1
1
1
1
1
1
1
1
1
1
1
1
1
1
1
1
1
1
1
1
1
1
1
1
1
1
1
1
1
1
1
1
1
1
1
1
1
1
1
1
1
1
1
1
1
1
1
1
1
1
1
1
1
1
1
1
1
1
1
1
1
1
1
1
1
1
1
1
1
1
1
1
1
1
1
1
1
1
1
1
1
1
1
1
1
1
1
1
1
1
1
1
1
1
1
1
1
1
1
1
1
1
1
1
1
1
1
1
1
1
1
1
1
1
1
1
1
1
1
1
1
1
1
1
1
1
1
1
1
1
1
1
1
1
1
1
1
1
1
1
1
1
1
1
1
1
1
1
1
1
1
1
1
1
1
1
1
1
1
1
1
1
1
1
1
1
1
1
1
1
1
1
1
1
1
1
1
1
1
1
1
1
1
1
1
1
1
1
1
1
1
1
1
1
1
1
1
1
1
1
1
1
1
1
1
1
1
1
1
1
1
1
1
1
1
1
1
1
1
1
1
1
1
1
1
1
1
1
1
1
1
1
1
1
1
1
1
1
1
1
1
1
1
1
1
1
1
1
1
1
1
1
1
1
1
1
1
1
1
1
1
1
1
1
1
1
1
1
1
1
1
1
1
1
1
1
1
1
1
1
1
1
1
1
1
1
1
1
1
1
1
1
1
1
1
1
1
1
1
1
1
1
1
1
1
1
1
1
1
1
1
1
1
1
1
1
1
1
1
1
1
1
1
1
1
1
1
1
1
1
1
1
1
1
1
1
1
1
1
1
1
1
1
1
1
1
1
1
1
1
1
1
1
1
1
1
1
1
1
1
1
1
1
1
1
1
1
1
1
1
1
1
1
1
1
1
1
1
1
1
1
1
1
1
1
1
1
1
1
1
1
1
1
1
1
1
1
1
1
1
1
1
1
1
1
1
1
1
1
1
1
1
1
1
1
1
1
1
1
1
1
1
1
1
1
1
1
1
1
1
1
1
1
1
1
1
1
1
1
1
1
1
1
1
1
1
1
1
1
1
1
1
1
1
1
1
1
1
1
1
1
1
1
1
1
1
1
1
1
1
1
1
1
1
1
1
1
1
1
1
1
1
1
1
1
1
1
1
1
1
1
1
1
1
1
1
1
1
1
1
1
1
1
1
1
1
1
1
1
1
1
1
1
1
1
1
1
1
1
1
1
1
1
1
1
1
1
1
1
1
1
1
1
1
1
1
1
1
1
1
1
1
1
1
1
1
1
1
1
1
1
1
1
1
1
1
1
1
1
1
1
1
1
1
1
1
1
1
1
1
1
1
1
1
1
1
1
1
1
1
1
1
1
1
1
1
1
1
1
1
1
1
1
1
1
1
1
1
1
1
1
1
1
1
1
1
1
1
1
1
1
1
1
1
1
1
1
1
1
1
1
1
1
1
1
1
1
1
1
1
1
1
1
1
1
1
1
1
1
1
1
1
1
1
1
1
1
1
1
1
1
1
1
1
1
1
1
1
1
1
1
1
1
1
1
1
1
1
1
1
1
1
1
1
1
1
1
1
1
1
1
1
1
1
1
1
1
1
1
1
1
1
1
1
1
1
1
1
1
1
1
1
1
1
1
1
1
1
1
1
1
1
1
1
1
1
1
1
1
1
1
1
1
1
1
1
1
1
1
1
1
1
1
1
1
1
1
1
1
1
1
1
1
1
1
1
1
1
1
1
1
1
1
1
1
1
1
1
1
1
1
1
1
1
1
1
1
1
1
1
1
1
1
1
1
1
1
1
1
1
1
1
1
1
1
1
1
1
1
1
1
1
1
1
1
1
1
1
1
1
1
1
1
1
1
1
1
1
1
1
1
1
1
1
1
1
1
1
1
1
1
1
1
1
1
1
1
1
1
1
1
1
1
1
1
1
1
1
1
1
1
1
1
1
1
1
1
1
1
1
1
1
1
1
1
1
1
1
1
1
1
1
1
1
1
1
1
1
1
1
1
1
1
1
1
1
1
1
1
1
1
1
1
1
1
1
1
1
1
1
1
1
1
1
1
1
1
1
1
1
1
1
1
1
1
1
1
1
1
1
1
1
1
1
1
1
1
1
1
1
1
1
1
1
1
1
1
1
1
1
1
1
1
1
1
1
1
1
1
1
1
1
1
1
1
1
1
1
1
1
1
1
1
1
1
1
1
1
1
1
1
1
1
1
1
1
1
1
1
1
1
1
1
1
1
1
1
1
1
1
1
1
1
1
1
1
1
1
1
1
1
1
1
1
1
1
1
1
1
1
1
1
1
1
1
1
1
1
1
1
1
1
1
1
1
1
1
1
1
1
1
1
1
1
1
1
1
1
1
1
1
1
1
1
1
1
1
1
1
1
1
1
1
1
1
1
1
1
1
1
1
1
1
1
1
1
1
1
1
1
1
1
1
1
1
1
1
1
1
1
1
1
1
1
1
1
1
1
1
1
1
1
1
1
1
1
1
1
1
1
1
1
1
1
1
1
1
1
1
1
1
1
1
1
1
1
1
1
1
1
1
1
1
1
1
1
1
1
1
1
1
1
1
1
1
1
1
1
1
1
1
1
1
1
1
1
1
1
1
1
1
1
1
1
1
1
1
1
1
1
1
1
1
1
1
1
1
1
1
1
1
1
1
1
1
1
1
1
1
1
1
1
1
1
1
1
1
1
1
1
1
1
1
1
1
1
1
1
1
1
1
1
1
1
1
1
1
1
1
1
1
1
1
1.07066
1.16404
1.25644
1.35707
1.46084
1.53787
1.60213
1.68838
1.78725
1.8322
1.85468
1.8915
1.9298
1.93059
1.91889
1.89323
1.86277
1.82913
1.7917
1.74742
1.70919
1.70084
1.69891
1.69193
1.69204
1.69545
1.70602
1.72024
1.72795
1.7269
1.72475
1.72464
1.72807
1.73327
1.73806
1.74158
1.74335
1.74476
1.74493
1.7442
1.74334
1.74209
1.74127
1.74125
1.74134
1.74167
1.74273
1.7445
1.7467
1.74924
1.7513
1.75189
1.75166
1.74986
1.74533
1.74055
1.73935
1.73999
1.74197
1.7451
1.74922
1.75258
1.75436
1.75521
1.75535
1.75473
1.75306
1.75091
1.74814
1.74604
1.74448
1.74356
1.74361
1.74473
1.74704
1.75033
1.75408
1.7563
1.75761
1.75787
1
0.999885
1.00159
1.00089
1.01441
1.07807
1.14172
1.1879
1.27169
1.38023
1.44876
1.48608
1.55561
1.61462
1.64183
1.67548
1.69665
1.72182
1.76322
1.76644
1.76776
1.77106
1.7739
1.76944
1.75614
1.74793
1.74639
1.74013
1.73115
1.72782
1.72865
1.73076
1.73452
1.73806
1.73877
1.7396
1.74143
1.74552
1.7488
1.74897
1.74842
1.74791
1.74859
1.74927
1.74924
1.74865
1.74727
1.74618
1.74602
1.74746
1.7508
1.75347
1.75394
1.75294
1.75121
1.75045
1.74965
1.7498
1.75037
1.75072
1.75064
1.75043
1.75035
1.75087
1.75171
1.75282
1.75373
1.75363
1.75341
1.75331
1.75301
1.75218
1.75156
1.7518
1.75276
1.75363
1.75386
1.75399
1.75422
1.7548
1
1
1
1
1
0.999997
1
1
0.999571
1.00247
1.02193
1.05528
1.12089
1.26159
1.37936
1.50347
1.64038
1.75262
1.82376
1.84282
1.84637
1.84607
1.84209
1.83467
1.81848
1.80044
1.77213
1.7535
1.74619
1.74847
1.75202
1.75275
1.75251
1.75235
1.75328
1.75369
1.75351
1.75452
1.75579
1.75663
1.75846
1.76195
1.76427
1.7647
1.76472
1.76419
1.76186
1.75782
1.75485
1.75437
1.75477
1.75642
1.75906
1.76154
1.76315
1.76366
1.76363
1.76351
1.7632
1.7621
1.75998
1.75744
1.75499
1.75337
1.75289
1.75308
1.75544
1.76
1.76298
1.76358
1.76353
1.76267
1.76162
1.761
1.76071
1.76045
1.75958
1.75817
1.75686
1.75618
1
1
1
1
1
1
1
1
1
1
1
1
1
0.999583
1.00322
1.02816
1.14648
1.31595
1.50269
1.64101
1.72204
1.80782
1.81323
1.81617
1.81052
1.79536
1.80036
1.80054
1.80035
1.80367
1.8033
1.79763
1.78843
1.78096
1.77412
1.7676
1.76546
1.76576
1.76686
1.76877
1.77152
1.77705
1.7827
1.78436
1.78487
1.78467
1.78196
1.77635
1.77047
1.76845
1.76835
1.76878
1.76952
1.77106
1.77373
1.7766
1.77883
1.77961
1.77894
1.77673
1.77356
1.76948
1.76503
1.76268
1.76213
1.76213
1.76266
1.76479
1.76869
1.77169
1.77272
1.77277
1.77203
1.77106
1.77024
1.76873
1.76624
1.76357
1.7616
1.76133
1
1
1
1
1
1
1
1
1
1
1
1
1
1
1
1
0.999999
0.999487
1.01274
1.10688
1.23129
1.40437
1.57763
1.69314
1.80239
1.82247
1.83728
1.84881
1.84573
1.84333
1.839
1.83
1.81463
1.79696
1.79442
1.79176
1.78782
1.78372
1.78262
1.78272
1.78396
1.78691
1.79165
1.79395
1.79458
1.7951
1.79503
1.79346
1.7906
1.78712
1.78559
1.78471
1.78377
1.783
1.78309
1.78414
1.78592
1.78815
1.78969
1.78962
1.78774
1.78473
1.78224
1.77983
1.7778
1.77635
1.77606
1.77642
1.77709
1.7776
1.77805
1.77815
1.77795
1.77773
1.77739
1.77635
1.77506
1.77352
1.77277
1.77236
1
1
1
1
1
1
1
1
1
1
1
1
1
1
1
1
1
1
1
1
0.999616
1.00377
1.06494
1.16203
1.32764
1.51455
1.64484
1.75449
1.77159
1.79113
1.8011
1.79762
1.79777
1.8072
1.81704
1.81818
1.81486
1.8091
1.80313
1.79784
1.79255
1.78785
1.78727
1.78816
1.79056
1.79434
1.79844
1.8012
1.80244
1.80311
1.8027
1.80112
1.79816
1.79422
1.79176
1.79093
1.79083
1.79086
1.79189
1.79406
1.7957
1.79644
1.79637
1.79585
1.79488
1.79316
1.79132
1.78977
1.78854
1.78713
1.78536
1.78379
1.78255
1.78208
1.78235
1.7837
1.78508
1.7853
1.78553
1.78518
1
1
1
1
1
1
1
1
1
1
1
1
1
1
1
1
1
1
1
1
1
1
1
0.999756
1.00067
1.0332
1.10851
1.26298
1.4505
1.57977
1.69279
1.74015
1.78448
1.81271
1.81571
1.8184
1.81836
1.81633
1.81111
1.80316
1.79572
1.78912
1.78665
1.78652
1.78762
1.79079
1.7946
1.7989
1.80316
1.80599
1.80739
1.80776
1.80728
1.80397
1.79699
1.79281
1.792
1.7918
1.79187
1.79279
1.79587
1.79958
1.80219
1.80339
1.80322
1.80225
1.80108
1.79905
1.79603
1.79317
1.79048
1.7886
1.78807
1.78811
1.7885
1.78929
1.79058
1.79169
1.79279
1.79387
1
1
1
1
1
1
1
1
1
1
1
1
1
1
1
1
1
1
1
1
1
1
1
1
1
1
0.999849
1.00007
1.02092
1.06842
1.20733
1.40695
1.55294
1.65302
1.69806
1.74617
1.77325
1.78395
1.79232
1.80226
1.80488
1.80104
1.7948
1.79073
1.78879
1.78803
1.78802
1.78808
1.78984
1.79454
1.80129
1.80543
1.80579
1.8058
1.80403
1.79942
1.79596
1.79403
1.79309
1.79349
1.79473
1.79639
1.79874
1.80166
1.80347
1.80365
1.80329
1.80283
1.8023
1.8008
1.79853
1.79587
1.79409
1.79393
1.79429
1.79522
1.79577
1.79593
1.79637
1.79696
1
1
1
1
1
1
1
1
1
1
1
1
1
1
1
1
1
1
1
1
1
1
1
1
1
1
1
1
1
0.999916
0.999912
1.01381
1.05617
1.18689
1.3585
1.49538
1.61346
1.68277
1.75124
1.78347
1.79428
1.79477
1.79347
1.79082
1.78781
1.78555
1.78133
1.77716
1.77521
1.77614
1.78079
1.79051
1.7982
1.80091
1.80171
1.80212
1.80222
1.80133
1.79915
1.7959
1.7934
1.79304
1.79351
1.79449
1.79495
1.79571
1.79713
1.7996
1.8021
1.80256
1.80207
1.80148
1.80125
1.80133
1.80097
1.7997
1.79855
1.7982
1.79799
1.7978
1
1
1
1
1
1
1
1
1
1
1
1
1
1
1
1
1
1
1
1
1
1
1
1
1
1
1
1
1
1
1
1
0.999927
1.00001
1.0084
1.03947
1.18018
1.35291
1.49435
1.59528
1.66328
1.73428
1.76663
1.77486
1.77893
1.78759
1.78693
1.7781
1.76806
1.76627
1.76945
1.77443
1.77877
1.78327
1.78802
1.7924
1.79654
1.7997
1.8001
1.79973
1.79735
1.7931
1.78954
1.78725
1.78691
1.78746
1.78954
1.79325
1.79609
1.79829
1.79938
1.79998
1.80107
1.80288
1.80347
1.8029
1.80064
1.79802
1.7969
1.79623
1
1
1
1
1
1
1
1
1
1
1
1
1
1
1
1
1
1
1
1
1
1
1
1
1
1
1
1
1
1
1
1
1
1
1
0.999921
1.0003
1.00883
1.04617
1.18437
1.33634
1.48654
1.60245
1.67848
1.73772
1.76404
1.77261
1.77426
1.77585
1.77495
1.77109
1.76644
1.7649
1.7642
1.76431
1.76767
1.7776
1.78832
1.79254
1.79296
1.79326
1.79307
1.79211
1.78931
1.78533
1.78319
1.78354
1.78663
1.78984
1.79035
1.79077
1.79221
1.79518
1.79881
1.80028
1.79978
1.79926
1.79918
1.79848
1.79642
1
1
1
1
1
1
1
1
1
1
1
1
1
1
1
1
1
1
1
1
1
1
1
1
1
1
1
1
1
1
1
1
1
1
1
1
0.999999
1
0.99992
1.00065
1.00808
1.05452
1.22017
1.37682
1.50065
1.5871
1.67975
1.75225
1.76876
1.76815
1.77023
1.77425
1.7699
1.75998
1.75449
1.75539
1.76031
1.76653
1.77209
1.77702
1.78121
1.78387
1.78568
1.78581
1.78529
1.78616
1.78683
1.78689
1.78587
1.78377
1.78332
1.78401
1.78624
1.78922
1.79233
1.79346
1.79405
1.79476
1.79582
1.7964
1
1
1
1
1
1
1
1
1
1
1
1
1
1
1
1
1
1
1
1
1
1
1
1
1
1
1
1
1
1
1
1
1
1
1
1
1
1
0.999999
0.999998
1
0.999931
1.00192
1.01406
1.07874
1.23151
1.38838
1.5531
1.64328
1.71075
1.74602
1.75935
1.7642
1.76404
1.76263
1.76074
1.75903
1.75736
1.75766
1.75796
1.75757
1.76124
1.76915
1.77669
1.77985
1.78076
1.78324
1.78719
1.78811
1.78599
1.77975
1.77737
1.778
1.78057
1.7831
1.78456
1.7854
1.78715
1.79032
1.79279
1
1
1
1
1
1
1
1
1
1
1
1
1
1
1
1
1
1
1
1
1
1
1
1
1
1
1
1
1
1
1
1
1
1
1
1
1
1
1
1
1
0.999999
0.999999
0.999985
1.00001
1.0028
1.02245
1.15217
1.33756
1.47256
1.56483
1.65361
1.73468
1.76079
1.76011
1.76319
1.77073
1.76932
1.76375
1.75425
1.74954
1.75142
1.75673
1.76075
1.76415
1.7689
1.77648
1.78138
1.7824
1.78055
1.77765
1.77743
1.7772
1.77699
1.77647
1.77658
1.77762
1.78022
1.78344
1.78622
1
1
1
1
1
1
1
1
1
1
1
1
1
1
1
1
1
1
1
1
1
1
1
1
1
1
1
1
1
1
1
1
1
1
1
1
1
1
1
1
1
1
1
1
0.999999
1
0.999968
1.00101
1.01145
1.05897
1.20494
1.36252
1.53711
1.64386
1.70738
1.74461
1.7611
1.76349
1.76357
1.76148
1.76005
1.75957
1.75759
1.754
1.75371
1.75482
1.75754
1.76294
1.76811
1.76925
1.77027
1.77132
1.77366
1.77597
1.77688
1.77627
1.77494
1.77542
1.77708
1.77991
1
1
1
1
1
1
1
1
1
1
1
1
1
1
1
1
1
1
1
1
1
1
1
1
1
1
1
1
1
1
1
1
1
1
1
1
1
1
1
1
1
1
1
1
1
1
0.999999
0.999999
0.999991
1.00003
1.00277
1.01963
1.14038
1.36434
1.53018
1.60152
1.67134
1.73282
1.75772
1.76198
1.76437
1.77037
1.76971
1.76452
1.75861
1.75436
1.75348
1.75585
1.75796
1.75776
1.75792
1.76168
1.76856
1.77224
1.7733
1.77262
1.7725
1.77362
1.77537
1.77659
1
1
1
1
1
1
1
1
1
1
1
1
1
1
1
1
1
1
1
1
1
1
1
1
1
1
1
1
1
1
1
1
1
1
1
1
1
1
1
1
1
1
1
1
1
1
1
1
1
0.999999
1
0.99998
1.0015
1.02027
1.1106
1.27758
1.43278
1.5908
1.67583
1.71281
1.74032
1.76052
1.76427
1.76313
1.76214
1.76318
1.76583
1.76436
1.75928
1.75279
1.75078
1.75276
1.75799
1.76224
1.76399
1.76568
1.76753
1.76887
1.77058
1.77243
1
1
1
1
1
1
1
1
1
1
1
1
1
1
1
1
1
1
1
1
1
1
1
1
1
1
1
1
1
1
1
1
1
1
1
1
1
1
1
1
1
1
1
1
1
1
1
1
1
1
1
0.999999
1
0.999987
1.00059
1.00903
1.04811
1.2192
1.46846
1.62515
1.66645
1.70065
1.73651
1.74879
1.75381
1.76484
1.77063
1.77102
1.76605
1.75865
1.75494
1.75489
1.75638
1.75981
1.75963
1.75939
1.75949
1.76087
1.76425
1.76727
1
1
1
1
1
1
1
1
1
1
1
1
1
1
1
1
1
1
1
1
1
1
1
1
1
1
1
1
1
1
1
1
1
1
1
1
1
1
1
1
1
1
1
1
1
1
1
1
1
1
1
1
1
0.999999
0.999999
0.999991
1.0001
1.00636
1.06242
1.26547
1.45581
1.58441
1.68639
1.70893
1.72127
1.73413
1.74915
1.75925
1.75906
1.75673
1.75805
1.76222
1.76781
1.76907
1.76561
1.75837
1.75484
1.75564
1.75743
1.76019
1
1
1
1
1
1
1
1
1
1
1
1
1
1
1
1
1
1
1
1
1
1
1
1
1
1
1
1
1
1
1
1
1
1
1
1
1
1
1
1
1
1
1
1
1
1
1
1
1
1
1
1
1
1
1
0.999999
0.999999
0.999992
1.00026
1.011
1.06817
1.19759
1.42539
1.66813
1.72421
1.72099
1.72716
1.73917
1.74112
1.73875
1.74303
1.75882
1.77178
1.7717
1.76654
1.7596
1.75642
1.75655
1.75769
1.75834
1
1
1
1
1
1
1
1
1
1
1
1
1
1
1
1
1
1
1
1
1
1
1
1
1
1
1
1
1
1
1
1
1
1
1
1
1
1
1
1
1
1
1
1
1
1
1
1
1
1
1
1
1
1
1
1
1
0.999999
0.999999
0.999998
1.00022
1.00561
1.05435
1.27944
1.51632
1.65208
1.71733
1.74044
1.7435
1.73728
1.73727
1.74781
1.75864
1.76287
1.75848
1.7532
1.75445
1.7581
1.76269
1.76289
1
1
1
1
1
1
1
1
1
1
1
1
1
1
1
1
1
1
1
1
1
1
1
1
1
1
1
1
1
1
1
1
1
1
1
1
1
1
1
1
1
1
1
1
1
1
1
1
1
1
1
1
1
1
1
1
1
1
1
1
1
0.999994
1.00027
1.01279
1.13407
1.30489
1.48707
1.66757
1.74892
1.75628
1.75788
1.76129
1.75414
1.75117
1.74726
1.74141
1.74103
1.74925
1.75922
1.76277
1
1
1
1
1
1
1
1
1
1
1
1
1
1
1
1
1
1
1
1
1
1
1
1
1
1
1
1
1
1
1
1
1
1
1
1
1
1
1
1
1
1
1
1
1
1
1
1
1
1
1
1
1
1
1
1
1
1
1
1
1
1
0.999999
1.00001
1.00171
1.02024
1.12331
1.33032
1.58378
1.70481
1.75135
1.76126
1.7628
1.76322
1.75939
1.75157
1.74784
1.75088
1.75427
1.75586
1
1
1
1
1
1
1
1
1
1
1
1
1
1
1
1
1
1
1
1
1
1
1
1
1
1
1
1
1
1
1
1
1
1
1
1
1
1
1
1
1
1
1
1
1
1
1
1
1
1
1
1
1
1
1
1
1
1
1
1
1
1
1
1
0.999998
1.00004
1.00168
1.02936
1.23214
1.50081
1.62978
1.691
1.74091
1.76236
1.77028
1.7698
1.76636
1.76462
1.75944
1.7526
1
1
1
1
1
1
1
1
1
1
1
1
1
1
1
1
1
1
1
1
1
1
1
1
1
1
1
1
1
1
1
1
1
1
1
1
1
1
1
1
1
1
1
1
1
1
1
1
1
1
1
1
1
1
1
1
1
1
1
1
1
1
1
1
1
1
0.999998
1.00021
1.0105
1.11149
1.33831
1.51814
1.64353
1.72788
1.74919
1.76168
1.7687
1.76847
1.76411
1.75626
1
1
1
1
1
1
1
1
1
1
1
1
1
1
1
1
1
1
1
1
1
1
1
1
1
1
1
1
1
1
1
1
1
1
1
1
1
1
1
1
1
1
1
1
1
1
1
1
1
1
1
1
1
1
1
1
1
1
1
1
1
1
1
1
1
1
1
0.999999
1.00001
1.00217
1.02575
1.16754
1.38997
1.62968
1.69736
1.72594
1.75166
1.76152
1.75823
1.75269
1
1
1
1
1
1
1
1
1
1
1
1
1
1
1
1
1
1
1
1
1
1
1
1
1
1
1
1
1
1
1
1
1
1
1
1
1
1
1
1
1
1
1
1
1
1
1
1
1
1
1
1
1
1
1
1
1
1
1
1
1
1
1
1
1
1
1
1
1
0.999998
1.00008
1.006
1.05036
1.28194
1.57373
1.71211
1.75501
1.75516
1.74829
1.74567
1
1
1
1
1
1
1
1
1
1
1
1
1
1
1
1
1
1
1
1
1
1
1
1
1
1
1
1
1
1
1
1
1
1
1
1
1
1
1
1
1
1
1
1
1
1
1
1
1
1
1
1
1
1
1
1
1
1
1
1
1
1
1
1
1
1
1
1
1
1
1
1.00001
1.00064
1.02575
1.23129
1.4822
1.63827
1.73483
1.7591
1.75964
1
1
1
1
1
1
1
1
1
1
1
1
1
1
1
1
1
1
1
1
1
1
1
1
1
1
1
1
1
1
1
1
1
1
1
1
1
1
1
1
1
1
1
1
1
1
1
1
1
1
1
1
1
1
1
1
1
1
1
1
1
1
1
1
1
1
1
1
1
1
1
1
1
1.00031
1.01289
1.13438
1.35308
1.5819
1.71341
1.75094
1
1
1
1
1
1
1
1
1
1
1
1
1
1
1
1
1
1
1
1
1
1
1
1
1
1
1
1
1
1
1
1
1
1
1
1
1
1
1
1
1
1
1
1
1
1
1
1
1
1
1
1
1
1
1
1
1
1
1
1
1
1
1
1
1
1
1
1
1
1
1
1
1
1
1.00006
1.00418
1.05019
1.22781
1.53133
1.73493
1
1
1
1
1
1
1
1
1
1
1
1
1
1
1
1
1
1
1
1
1
1
1
1
1
1
1
1
1
1
1
1
1
1
1
1
1
1
1
1
1
1
1
1
1
1
1
1
1
1
1
1
1
1
1
1
1
1
1
1
1
1
1
1
1
1
1
1
1
1
1
1
1
1
1
1.00001
1.00059
1.01888
1.18285
1.62512
1
1
1
1
1
1
1
1
1
1
1
1
1
1
1
1
1
1
1
1
1
1
1
1
1
1
1
1
1
1
1
1
1
1
1
1
1
1
1
1
1
1
1
1
1
1
1
1
1
1
1
1
1
1
1
1
1
1
1
1
1
1
1
1
1
1
1
1
1
1
1
1
1
1
1
1
1
1.00031
1.01182
1.3831
1
1
1
1
1
1
1
1
1
1
1
1
1
1
1
1
1
1
1
1
1
1
1
1
1
1
1
1
1
1
1
1
1
1
1
1
1
1
1
1
1
1
1
1
1
1
1
1
1
1
1
1
1
1
1
1
1
1
1
1
1
1
1
1
1
1
1
1
1
1
1
1
1
1
1
1
1
1
1.00027
1.09294
1
1
1
1
1
1
1
1
1
1
1
1
1
1
1
1
1
1
1
1
1
1
1
1
1
1
1
1
1
1
1
1
1
1
1
1
1
1
1
1
1
1
1
1
1
1
1
1
1
1
1
1
1
1
1
1
1
1
1
1
1
1
1
1
1
1
1
1
1
1
1
1
1
1
1
1
1
1
1
1.00696
1
1
1
1
1
1
1
1
1
1
1
1
1
1
1
1
1
1
1
1
1
1
1
1
1
1
1
1
1
1
1
1
1
1
1
1
1
1
1
1
1
1
1
1
1
1
1
1
1
1
1
1
1
1
1
1
1
1
1
1
1
1
1
1
1
1
1
1
1
1
1
1
1
1
1
1
1
1
1
1.00025
1
1
1
1
1
1
1
1
1
1
1
1
1
1
1
1
1
1
1
1
1
1
1
1
1
1
1
1
1
1
1
1
1
1
1
1
1
1
1
1
1
1
1
1
1
1
1
1
1
1
1
1
1
1
1
1
1
1
1
1
1
1
1
1
1
1
1
1
1
1
1
1
1
1
1
1
1
1
1
1.00001
1
1
1
1
1
1
1
1
1
1
1
1
1
1
1
1
1
1
1
1
1
1
1
1
1
1
1
1
1
1
1
1
1
1
1
1
1
1
1
1
1
1
1
1
1
1
1
1
1
1
1
1
1
1
1
1
1
1
1
1
1
1
1
1
1
1
1
1
1
1
1
1
1
1
1
1
1
1
1
1
1
1
1
1
1
1
1
1
1
1
1
1
1
1
1
1
1
1
1
1
1
1
1
1
1
1
1
1
1
1
1
1
1
1
1
1
1
1
1
1
1
1
1
1
1
1
1
1
1
1
1
1
1
1
1
1
1
1
1
1
1
1
1
1
1
1
1
1
1
1
1
1
1
1
1
1
1
1
1
1
1
1
1
1
1
1
1
1
1
1
1
1
1
1
1
1
1
1
1
1
1
1
1
1
1
1
1
1
1
1
1
1
1
1
1
1
1
1
1
1
1
1
1
1
1
1
1
1
1
1
1
1
1
1
1
1
1
1
1
1
1
1
1
1
1
1
1
1
1
1
1
1
1
1
1
1
1
1
1
1
1
1
1
1
1
1
1
1
1
1
1
1
1
1
1
1
1
1
1
1
1
1
1
1
1
1
1
1
1
1
1
1
1
1
1
1
1
1
1
1
1
1
1
1
1
1
1
1
1
1
1
1
1
1
1
1
1
1
1
1
1
1
1
1
1
1
1
1
1
1
1
1
1
1
1
1
1
1
1
1
)
;

boundaryField
{
    inlet
    {
        type            fixedValue;
        value           uniform 1;
    }
    outlet
    {
        type            zeroGradient;
    }
    bottom
    {
        type            symmetryPlane;
    }
    top
    {
        type            symmetryPlane;
    }
    obstacle
    {
        type            zeroGradient;
    }
    defaultFaces
    {
        type            empty;
    }
}


// ************************************************************************* //
