/*--------------------------------*- C++ -*----------------------------------*\
| =========                 |                                                 |
| \\      /  F ield         | OpenFOAM: The Open Source CFD Toolbox           |
|  \\    /   O peration     | Version:  2206                                  |
|   \\  /    A nd           | Website:  www.openfoam.com                      |
|    \\/     M anipulation  |                                                 |
\*---------------------------------------------------------------------------*/
FoamFile
{
    version     2.0;
    format      ascii;
    arch        "LSB;label=32;scalar=64";
    class       volScalarField;
    location    "0.12";
    object      p;
}
// * * * * * * * * * * * * * * * * * * * * * * * * * * * * * * * * * * * * * //

dimensions      [1 -1 -2 0 0 0 0];

internalField   nonuniform List<scalar> 
4800
(
1
1
1
1
1
1
1
1
1
1
1
1
1
1
1
1
1
1
1
1
1
1
1
1
1
1
1
1
1
1
1
1
1
1
1
1
1
1
1
1
1
1
1
1
1
1
1
1
1
1
1
1
1
1
1
1
1
1
1
1
1
1
1
1
1
1
1
1
1
1
1
1
1
1
1
1
1
1
1
1
1
1
1
1
1
1
1
1
1
1
1
1
1
1
1
1
1
1
1
1
1
1
1
1
1
1
1
1
1
1
1
1
1
1
1
1
1
1
1
1
1
1
1
1
1
1
1
1
1
1
1
1
1
1
1
1
1
1
1
1
1
1
1
1
1
1
1
1
1
1
1
1
1
1
1
1
1
1
1
1
1
1
1
1
1
1
1
1
1
1
1
1
1
1
1
1
1
1
1
1
1
1
1
1
1
1
1
1
1
1
1
1
1
1
1
1
1
1
1
1
1
1
1
1
1
1
1
1
1
1
1
1
1
1
1
1
1
1
1
1
1
1
1
1
1
1
1
1
1
1
1
1
1
1
1
1
1
1
1
1
1
1
1
1
1
1
1
1
1
1
1
1
1
1
1
1
1
1
1
1
1
1
1
1
1
1
1
1
1
1
1
1
1
1
1
1
1
1
1
1
1
1
1
1
1
1
1
1
1
1
1
1
1
1
1
1
1
1
1
1
1
1
1
1
1
1
1
1
1
1
1
1
1
1
1
1
1
1
1
1
1
1
1
1
1
1
1
1
1
1
1
1
1
1
1
1
1
1
1
1
1
1
1
1
1
1
1
1
1
1
1
1
1
1
1
1
1
1
1
1
1
1
1
1
1
1
1
1
1
1
1
1
1
1
1
1
1
1
1
1
1
1
1
1
1
1
1
1
1
1
1
1
1
1
1
1
1
1
1
1
1
1
1
1
1
1
1
1
1
1
1
1
1
1
1
1
1
1
1
1
1
1
1
1
1
1
1
1
1
1
1
1
1
1
1
1
1
1
1
1
1
1
1
1
1
1
1
1
1
1
1
1
1
1
1
1
1
1
1
1
1
1
1
1
1
1
1
1
1
1
1
1
1
1
1
1
1
1
1
1
1
1
1
1
1
1
1
1
1
1
1
1
1
1
1
1
1
1
1
1
1
1
1
1
1
1
1
1
1
1
1
1
1
1
1
1
1
1
1
1
1
1
1
1
1
1
1
1
1
1
1
1
1
1
1
1
1
1
1
1
1
1
1
1
1
1
1
1
1
1
1
1
1
1
1
1
1
1
1
1
1
1
1
1
1
1
1
1
1
1
1
1
1
1
1
1
1
1
1
1
1
1
1
1
1
1
1
1
1
1
1
1
1
1
1
1
1
1
1
1
1
1
1
1
1
1
1
1
1
1
1
1
1
1
1
1
1
1
1
1
1
1
1
1
1
1
1
1
1
1
1
1
1
1
1
1
1
1
1
1
1
1
1
1
1
1
1
1
1
1
1
1
1
1
1
1
1
1
1
1
1
1
1
1
1
1
1
1
1
1
1
1
1
1
1
1
1
1
1
1
1
1
1
1
1
1
1
1
1
1
1
1
1
1
1
1
1
1
1
1
1
1
1
1
1
1
1
1
1
1
1
1
1
1
1
1
1
1
1
1
1
1
1
1
1
1
1
1
1
1
1
1
1
1
1
1
1
1
1
1
1
1
1
1
1
1
1
1
1
1
1
1
1
1
1
1
1
1
1
1
1
1
1
1
1
1
1
1
1
1
1
1
1
1
1
1
1
1
1
1
1
1
1
1
1
1
1
1
1
1
1
1
1
1
1
1
1
1
1
1
1
1
1
1
1
1
1
1
1
1
1
1
1
1
1
1
1
1
1
1
1
1
1
1
1
1
1
1
1
1
1
1
1
1
1
1
1
1
1
1
1
1
1
1
1
1
1
1
1
1
1
1
1
1
1
1
1
1
1
1
1
1
1
1
1
1
1
1
1
1
1
1
1
1
1
1
1
1
1
1
1
1
1
1
1
1
1
1
1
1
1
1
1
1
1
1
1
1
1
1
1
1
1
1
1
1
1
1
1
1
1
1
1
1
1
1
1
1
1
1
1
1
1
1
1
1
1
1
1
1
1
1
1
1
1
1
1
1
1
1
1
1
1
1
1
1
1
1
1
1
1
1
1
1
1
1
1
1
1
1
1
1
1
1
1
1
1
1
1
1
1
1
1
1
1
1
1
1
1
1
1
1
1
1
1
1
1
1
1
1
1
1
1
1
1
1
1
1
1
1
1
1
1
1
1
1
1
1
1
1
1
1
1
1
1
1
1
1
1
1
1
1
1
1
1
1
1
1
1
1
1
1
1
1
1
1
1
1
1
1
1
1
1
1
1
1
1
1
1
1
1
1
1
1
1
1
1
1
1
1
1
1
1
1
1
1
1
1
1
1
1
1
1
1
1
1
1
1
1
1
1
1
1
1
1
1
1
1
1
1
1
1
1
1
1
1
1
1
1
1
1
1
1
1
1
1
1
1
1
1
1
1
1
1
1
1
1
1
1
1
1
1
1
1
1
1
1
1
1
1
1
1
1
1
1
1
1
1
1
1
1
1
1
1
1
1
1
1
1
1
1
1
1
1
1
1
1
1
1
1
1
1
1
1
1
1
1
1
1
1
1
1
1
1
1
1
1
1
1
1
1
1
1
1
1
1
1
1
1
1
1
1
1
1
1
1
1
1
1
1
1
1
1
1
1
1
1
1
1
1
1
1
1
1
1
1
1
1
1
1
1
1
1
1
1
1
1
1
1
1
1
1
1
1
1
1
1
1
1
1
1
1
1
1
1
1
1
1
1
1
1
1
1
1
1
1
1
1
1
1
1
1
1
1
1
1
1
1
1
1
1
1
1
1
1
1
1
1
1
1
1
1
1
1
1
1
1
1
1
1
1
1
1
1
1
1
1
1
1
1
1
1
1
1
1
1
1
1
1
1
1
1
1
1
1
1
1
1
1
1
1
1
1
1
1
1
1
1
1
1
1
1
1
1
1
1
1
1
1
1
1
1
1
1
1
1
1
1
1
1
1
1
1
1
1
1
1
1
1
1
1
1
1
1
1
1
1
1
1
1
1
1
1
1
1
1
1
1
1
1
1
1
1
1
1
1
1
1
1
1
1
1
1
1
1
1
1
1
1
1
1
1
1
1
1
1
1
1
1
1
1
1
1
1
1
1
1
1
1
1
1
1
1
1
1
1
1
1
1
1
1
1
1
1
1
1
1
1
1
1
1
1
1
1
1
1
1
1
1
1
1
1
1
1
1
1
1
1
1
1
1
1
1
1
1
1
1
1
1
1
1
1
1
1
1
1
1
1
1
1
1
1
1
1
1
1
1
1
1
1
1
1
1
1
1
1
1
1
1
1
1
1
1
1
1
1
1
1
1
1
1
1
1
1
1
1
1
1
1
1
1
1
1
1
1
1
1
1
1
1
1
1
1
1
1
1
1
1
1
1
1
1
1
1
1
1
1
1
1
1
1
1
1
1
1
1
1
1
1
1
1
1
1
1
1
1
1
1
1
1
1
1
1
1
1
1
1
1
1
1
1
1
1
1
1
1
1
1
1
1
1
1
1
1
1
1
1
1
1
1
1.27431
1.68527
2.20639
2.70657
3.15368
3.65235
3.99486
4.22187
4.3601
4.2886
4.10675
3.8202
3.47578
3.25419
3.18943
3.13364
3.09568
3.09986
3.12769
3.16598
3.20835
3.23594
3.23836
3.23369
3.22821
3.22902
3.23537
3.24347
3.24956
3.25206
3.25025
3.24655
3.24479
3.24452
3.24382
3.24475
3.24583
3.24692
3.25052
3.25675
3.26077
3.26259
3.26274
3.26152
3.25909
3.25634
3.25573
3.25632
3.25745
3.25847
3.25862
3.25832
3.25756
3.25666
3.25597
3.25528
3.25441
3.25371
3.25247
3.24962
3.24396
3.23348
3.21681
3.19572
3.17449
3.15514
3.13657
3.1193
3.10641
3.09852
3.09349
3.08891
3.08295
3.0753
3.06834
3.06271
3.05695
3.05165
3.04801
3.04172
1.00432
1.03058
1.07899
1.21797
1.41572
1.68469
2.05157
2.41121
2.80115
3.06305
3.23467
3.36727
3.46227
3.41765
3.37182
3.36367
3.31565
3.24964
3.22963
3.20289
3.18741
3.19513
3.20559
3.21654
3.22555
3.23401
3.24045
3.24206
3.24406
3.24773
3.25059
3.25056
3.25026
3.2499
3.24742
3.24386
3.24229
3.24288
3.24579
3.24913
3.2503
3.25104
3.25216
3.25335
3.25392
3.25407
3.25445
3.25527
3.25676
3.25874
3.25954
3.25974
3.2597
3.25897
3.25757
3.2566
3.25612
3.25561
3.25428
3.25091
3.24433
3.23292
3.21589
3.19517
3.17334
3.15184
3.13165
3.11504
3.10406
3.09699
3.0915
3.08613
3.07971
3.07225
3.06533
3.05916
3.05357
3.04923
3.04614
3.04022
1
1.00002
1.0001
1.00121
1.00614
1.02497
1.08483
1.23394
1.50942
2.02758
2.6946
3.20199
3.48899
3.65073
3.62132
3.57849
3.50411
3.39954
3.25078
3.18705
3.17756
3.1852
3.20425
3.21992
3.22363
3.22836
3.23009
3.23324
3.2382
3.2477
3.25709
3.26001
3.2609
3.2601
3.25715
3.25052
3.24524
3.24394
3.24434
3.24599
3.24616
3.24616
3.24612
3.24709
3.2484
3.24905
3.24958
3.25065
3.25318
3.25636
3.25764
3.25807
3.25829
3.25784
3.25666
3.25643
3.25642
3.25653
3.25556
3.25209
3.24496
3.23282
3.21558
3.19512
3.17346
3.15217
3.13173
3.11539
3.10512
3.09825
3.09222
3.086
3.07919
3.07205
3.06526
3.05927
3.05464
3.05096
3.04789
3.042
1
1
1
0.999998
1
1
1.00014
1.00146
1.00886
1.06588
1.25187
1.73346
2.30284
2.9782
3.23706
3.3624
3.37387
3.34255
3.34006
3.33027
3.31235
3.27299
3.25501
3.22312
3.19659
3.18708
3.19201
3.2064
3.22639
3.24678
3.26001
3.26418
3.26501
3.26431
3.26197
3.25662
3.2519
3.25065
3.25144
3.25389
3.25401
3.25331
3.25173
3.24961
3.25026
3.25087
3.25088
3.25123
3.25317
3.25535
3.25618
3.25644
3.25633
3.25529
3.25365
3.25353
3.25335
3.2531
3.2526
3.24954
3.24244
3.22985
3.21197
3.19202
3.17247
3.15194
3.13134
3.11509
3.1053
3.09873
3.09287
3.08657
3.07943
3.07178
3.06508
3.05909
3.055
3.05166
3.04857
3.04242
1
1
1
1
1
1
1
1
0.999994
1.00006
1.00146
1.02418
1.13872
1.43383
2.00865
2.57883
3.17101
3.34413
3.44805
3.45258
3.43432
3.38777
3.29671
3.221
3.18396
3.18253
3.18839
3.19933
3.21604
3.22707
3.23122
3.23691
3.2429
3.24719
3.24957
3.25272
3.2558
3.25714
3.25996
3.26317
3.26317
3.26211
3.25998
3.25676
3.25597
3.25641
3.2562
3.25615
3.25756
3.25881
3.25908
3.25897
3.25836
3.25641
3.25441
3.25386
3.25308
3.25198
3.25099
3.24766
3.2398
3.2263
3.20746
3.18584
3.16617
3.14661
3.12594
3.11057
3.10249
3.09735
3.09261
3.08702
3.07972
3.07151
3.06442
3.05899
3.05518
3.05179
3.04833
3.04199
1
1
1
1
1
1
1
1
1
1
1
0.999995
1.00047
1.00593
1.06919
1.26468
1.69887
2.30819
2.81185
3.2498
3.2957
3.30118
3.33563
3.30803
3.25307
3.24382
3.2368
3.22459
3.22434
3.21785
3.20902
3.2099
3.2152
3.22233
3.23035
3.23834
3.24513
3.24996
3.25618
3.26303
3.26526
3.2643
3.26162
3.25771
3.25642
3.25673
3.25752
3.25908
3.26091
3.26151
3.26149
3.26114
3.25994
3.25755
3.2558
3.25492
3.25376
3.25248
3.25154
3.24807
3.23971
3.2255
3.20583
3.18252
3.16127
3.14096
3.11942
3.10715
3.10059
3.09514
3.09014
3.08482
3.07785
3.07035
3.06327
3.05845
3.05465
3.05102
3.04693
3.04035
1
1
1
1
1
1
1
1
1
1
1
1
1
0.999994
1.00012
1.00245
1.02263
1.16775
1.47284
2.02608
2.56588
3.02556
3.30109
3.35345
3.33775
3.31444
3.29607
3.26406
3.24681
3.2291
3.2159
3.20874
3.20709
3.20764
3.21282
3.22462
3.2352
3.2416
3.24502
3.24914
3.2524
3.25202
3.25144
3.24981
3.24871
3.2485
3.24994
3.25379
3.25788
3.25978
3.26055
3.2608
3.25995
3.25777
3.25648
3.25595
3.25524
3.25492
3.25414
3.25002
3.24076
3.2262
3.2061
3.18179
3.15982
3.1385
3.11674
3.10661
3.10071
3.09489
3.08942
3.08343
3.07639
3.06855
3.06171
3.05724
3.05341
3.0495
3.04502
3.03831
1
1
1
1
1
1
1
1
1
1
1
1
1
1
1
0.999999
1
1.00107
1.01031
1.07435
1.3424
1.77114
2.3737
2.77358
3.11915
3.25978
3.26391
3.27895
3.29146
3.28474
3.26957
3.25819
3.24688
3.23568
3.22704
3.2252
3.23138
3.24079
3.24516
3.24689
3.24716
3.24515
3.24294
3.24186
3.24191
3.24153
3.24181
3.24474
3.24993
3.25398
3.25593
3.25673
3.25656
3.256
3.25588
3.25582
3.25603
3.25713
3.25634
3.25176
3.24181
3.22709
3.20693
3.18249
3.16
3.13721
3.11731
3.10823
3.10162
3.09552
3.08982
3.08352
3.07625
3.06766
3.06067
3.05623
3.05217
3.04764
3.04284
3.03613
1
1
1
1
1
1
1
1
1
1
1
1
1
1
1
1
1
1
0.999996
1.00023
1.00594
1.03738
1.20947
1.61299
2.19665
2.65645
2.96063
3.20755
3.26664
3.28293
3.28652
3.28835
3.27462
3.25515
3.24624
3.243
3.24742
3.26103
3.27036
3.26881
3.26285
3.25403
3.24707
3.24605
3.24612
3.24478
3.24368
3.24485
3.24927
3.25229
3.25285
3.25269
3.25159
3.25082
3.25064
3.25065
3.25171
3.25419
3.25342
3.24875
3.23889
3.22422
3.20448
3.18106
3.15832
3.13534
3.11769
3.10917
3.1021
3.09591
3.09026
3.08364
3.07585
3.06705
3.05951
3.05471
3.0505
3.04546
3.04088
3.03484
1
1
1
1
1
1
1
1
1
1
1
1
1
1
1
1
1
1
0.999999
1
0.999997
1.00005
1.00244
1.02605
1.12769
1.47933
1.96945
2.58124
2.87004
3.06103
3.14972
3.20424
3.23892
3.2527
3.25499
3.24815
3.24767
3.25393
3.26281
3.26445
3.26531
3.2661
3.26291
3.2617
3.26305
3.26321
3.26163
3.26056
3.26031
3.25845
3.25668
3.2549
3.25158
3.24957
3.24894
3.24876
3.25001
3.25241
3.251
3.24543
3.235
3.21964
3.19889
3.1755
3.15311
3.13193
3.11667
3.10768
3.10074
3.09481
3.08865
3.08123
3.07394
3.06591
3.05861
3.05292
3.0486
3.04321
3.03911
3.0338
1
1
1
1
1
1
1
1
1
1
1
1
1
1
1
1
1
1
1
1
1
1
0.999998
1.00003
1.00088
1.0166
1.08576
1.33046
1.84576
2.48416
2.90397
3.02708
3.12649
3.17565
3.19494
3.20342
3.1979
3.20371
3.22225
3.23506
3.24349
3.24989
3.25316
3.25856
3.26404
3.26717
3.26775
3.26678
3.26704
3.26633
3.26482
3.26257
3.25923
3.2569
3.25559
3.254
3.25387
3.25383
3.25162
3.24547
3.23403
3.21751
3.19465
3.16965
3.14757
3.12876
3.1142
3.10412
3.09728
3.09208
3.08786
3.08315
3.07471
3.06481
3.05706
3.05071
3.04533
3.03984
3.03677
3.0327
1
1
1
1
1
1
1
1
1
1
1
1
1
1
1
1
1
1
1
1
1
1
1
1
0.999999
1.00001
1.00046
1.00778
1.07443
1.27292
1.74249
2.2993
2.88136
3.10308
3.14392
3.20114
3.18537
3.1951
3.20337
3.20537
3.21296
3.21969
3.22303
3.22902
3.23619
3.24437
3.25436
3.26136
3.26314
3.26329
3.26162
3.25843
3.25642
3.25696
3.25768
3.2584
3.25932
3.25815
3.25543
3.24911
3.23745
3.22049
3.19795
3.17165
3.14688
3.1276
3.1124
3.10067
3.09422
3.08953
3.08591
3.08207
3.07643
3.0675
3.05655
3.04861
3.04261
3.0379
3.03508
3.03134
1
1
1
1
1
1
1
1
1
1
1
1
1
1
1
1
1
1
1
1
1
1
1
1
1
1
0.999999
1
1.00043
1.00504
1.05727
1.22815
1.64464
2.22145
2.78447
3.11163
3.18676
3.24224
3.25319
3.23688
3.22886
3.2261
3.21962
3.21712
3.22078
3.22771
3.23713
3.24436
3.24743
3.24891
3.24784
3.24595
3.24598
3.24945
3.25222
3.2545
3.25648
3.25553
3.25292
3.24719
3.23679
3.22101
3.19902
3.17286
3.14803
3.12876
3.11385
3.1015
3.09408
3.08896
3.08528
3.08172
3.07662
3.06858
3.05913
3.05059
3.04314
3.03576
3.03192
3.02812
1
1
1
1
1
1
1
1
1
1
1
1
1
1
1
1
1
1
1
1
1
1
1
1
1
1
1
1
1
0.999998
1.00032
1.00393
1.03792
1.2218
1.61486
2.18999
2.72655
3.09383
3.21457
3.25364
3.27497
3.27248
3.2644
3.25563
3.25062
3.24888
3.24977
3.25057
3.24988
3.24784
3.24497
3.24167
3.24119
3.24343
3.24554
3.24792
3.25043
3.24997
3.24746
3.24213
3.23245
3.21713
3.19558
3.16998
3.14592
3.12781
3.11451
3.10353
3.09471
3.08842
3.08415
3.08029
3.07502
3.067
3.05861
3.05214
3.04604
3.03926
3.03319
3.02765
1
1
1
1
1
1
1
1
1
1
1
1
1
1
1
1
1
1
1
1
1
1
1
1
1
1
1
1
1
1
1
0.999999
1.00017
1.0043
1.03432
1.22768
1.6364
2.20472
2.67651
3.0459
3.2103
3.24363
3.25518
3.27109
3.27342
3.27392
3.27502
3.27312
3.26978
3.26752
3.26496
3.26036
3.25494
3.25344
3.2538
3.25476
3.2532
3.25106
3.24794
3.24139
3.23004
3.213
3.19043
3.16495
3.14193
3.12562
3.1143
3.10514
3.0967
3.08883
3.08253
3.07755
3.07185
3.06351
3.05656
3.0532
3.04901
3.04338
3.03601
3.02881
1
1
1
1
1
1
1
1
1
1
1
1
1
1
1
1
1
1
1
1
1
1
1
1
1
1
1
1
1
1
1
1
1
1
1.00015
1.00532
1.03673
1.21429
1.66918
2.30461
2.7233
2.99019
3.13348
3.20904
3.23113
3.24641
3.26294
3.26721
3.26654
3.26578
3.26724
3.267
3.26488
3.26457
3.26706
3.26844
3.26453
3.2594
3.2546
3.2463
3.23279
3.21328
3.18824
3.16211
3.13968
3.12439
3.11433
3.10586
3.09774
3.08959
3.08158
3.07426
3.06682
3.0579
3.05399
3.0513
3.04772
3.04326
3.03874
3.03192
1
1
1
1
1
1
1
1
1
1
1
1
1
1
1
1
1
1
1
1
1
1
1
1
1
1
1
1
1
1
1
1
1
1
1
1
1.00017
1.00545
1.04799
1.23352
1.72065
2.40934
2.88379
3.03401
3.13825
3.17569
3.21193
3.21637
3.21706
3.22165
3.22954
3.23975
3.25142
3.26085
3.26608
3.26866
3.26583
3.25899
3.2531
3.24507
3.23242
3.21309
3.1886
3.16383
3.14126
3.12415
3.11302
3.10416
3.09627
3.08872
3.08076
3.07189
3.0617
3.05368
3.05066
3.04806
3.04506
3.04179
3.03958
3.0347
1
1
1
1
1
1
1
1
1
1
1
1
1
1
1
1
1
1
1
1
1
1
1
1
1
1
1
1
1
1
1
1
1
1
1
1
1
1
1.00031
1.0063
1.06811
1.29522
1.83418
2.49908
3.00644
3.16937
3.22221
3.21888
3.20976
3.21189
3.21098
3.21547
3.22857
3.23948
3.24654
3.2519
3.2526
3.24972
3.2463
3.24047
3.22831
3.20896
3.18626
3.16399
3.14305
3.12483
3.11165
3.1023
3.09462
3.08716
3.07925
3.07025
3.05895
3.05117
3.04826
3.04527
3.04168
3.03825
3.03677
3.03454
1
1
1
1
1
1
1
1
1
1
1
1
1
1
1
1
1
1
1
1
1
1
1
1
1
1
1
1
1
1
1
1
1
1
1
1
1
1
1
1.00001
1.0007
1.00992
1.10218
1.39731
1.99764
2.65379
3.07252
3.2314
3.24977
3.27769
3.27502
3.25678
3.24635
3.24879
3.25141
3.25092
3.24971
3.24711
3.24241
3.23518
3.22261
3.20371
3.18316
3.16417
3.14473
3.12614
3.11175
3.10111
3.0923
3.08453
3.07633
3.06799
3.05872
3.05275
3.04896
3.04413
3.0389
3.03455
3.03221
3.0304
1
1
1
1
1
1
1
1
1
1
1
1
1
1
1
1
1
1
1
1
1
1
1
1
1
1
1
1
1
1
1
1
1
1
1
1
1
1
1
1
0.999999
1.00003
1.00161
1.01825
1.16188
1.55952
2.19455
2.77306
3.08924
3.23439
3.27932
3.28518
3.27987
3.2785
3.27792
3.27209
3.26632
3.26208
3.25453
3.2421
3.22458
3.2037
3.18305
3.16441
3.14587
3.12797
3.1124
3.10023
3.09038
3.08181
3.0733
3.06344
3.05716
3.05447
3.05089
3.04529
3.03877
3.03322
3.02933
3.02584
1
1
1
1
1
1
1
1
1
1
1
1
1
1
1
1
1
1
1
1
1
1
1
1
1
1
1
1
1
1
1
1
1
1
1
1
1
1
1
1
1
1
1
1.00009
1.00383
1.03612
1.2617
1.82659
2.46081
2.87551
3.09046
3.2094
3.2528
3.2631
3.26814
3.2672
3.26494
3.26307
3.25772
3.24642
3.22855
3.20681
3.18512
3.1656
3.14705
3.12857
3.11221
3.09899
3.08881
3.07854
3.06628
3.0592
3.05619
3.05561
3.05358
3.04763
3.04059
3.03327
3.0276
3.02183
1
1
1
1
1
1
1
1
1
1
1
1
1
1
1
1
1
1
1
1
1
1
1
1
1
1
1
1
1
1
1
1
1
1
1
1
1
1
1
1
1
1
1
1
1
1.00033
1.01109
1.08676
1.42302
2.09562
2.76958
3.01941
3.15119
3.20046
3.2206
3.2314
3.24104
3.24724
3.24515
3.23714
3.22344
3.20609
3.18611
3.16583
3.14678
3.12819
3.11163
3.09844
3.08713
3.07436
3.06237
3.05715
3.05461
3.05388
3.05327
3.04741
3.04078
3.03428
3.02648
3.01805
1
1
1
1
1
1
1
1
1
1
1
1
1
1
1
1
1
1
1
1
1
1
1
1
1
1
1
1
1
1
1
1
1
1
1
1
1
1
1
1
1
1
1
1
1
1
1.00005
1.00138
1.02944
1.18229
1.68682
2.42527
3.00394
3.19455
3.22124
3.2429
3.24531
3.24582
3.24355
3.23597
3.22248
3.20621
3.1866
3.16597
3.14649
3.12794
3.11175
3.09869
3.08369
3.06666
3.05981
3.05556
3.05158
3.04928
3.04924
3.04409
3.03824
3.03366
3.02858
3.01804
1
1
1
1
1
1
1
1
1
1
1
1
1
1
1
1
1
1
1
1
1
1
1
1
1
1
1
1
1
1
1
1
1
1
1
1
1
1
1
1
1
1
1
1
1
1
1
1
1.0003
1.00542
1.08243
1.39306
2.04905
2.75225
3.12313
3.26726
3.28139
3.27947
3.2675
3.24987
3.2312
3.2134
3.1934
3.17028
3.14888
3.12944
3.11283
3.09861
3.08265
3.06885
3.06242
3.05702
3.05128
3.04751
3.04478
3.03825
3.03241
3.02935
3.02829
3.02248
1
1
1
1
1
1
1
1
1
1
1
1
1
1
1
1
1
1
1
1
1
1
1
1
1
1
1
1
1
1
1
1
1
1
1
1
1
1
1
1
1
1
1
1
1
1
1
1
1
1.00002
1.00182
1.02258
1.21541
1.78389
2.49097
2.91575
3.11793
3.22922
3.23905
3.23311
3.22169
3.21126
3.19448
3.17061
3.14731
3.1284
3.11243
3.09629
3.07873
3.0673
3.06178
3.05618
3.05176
3.04766
3.04038
3.03227
3.02687
3.02398
3.02268
3.02184
1
1
1
1
1
1
1
1
1
1
1
1
1
1
1
1
1
1
1
1
1
1
1
1
1
1
1
1
1
1
1
1
1
1
1
1
1
1
1
1
1
1
1
1
1
1
1
1
1
1
1
1.00022
1.01011
1.08764
1.48055
2.20721
2.94558
3.1501
3.19148
3.19846
3.19552
3.19878
3.19171
3.16906
3.14356
3.12584
3.10945
3.0892
3.07079
3.06374
3.05809
3.05301
3.05143
3.0503
3.04149
3.02933
3.02086
3.01613
3.01387
3.01599
1
1
1
1
1
1
1
1
1
1
1
1
1
1
1
1
1
1
1
1
1
1
1
1
1
1
1
1
1
1
1
1
1
1
1
1
1
1
1
1
1
1
1
1
1
1
1
1
1
1
1
1
1.00007
1.00185
1.04644
1.27381
1.92338
2.71788
3.10962
3.24305
3.24191
3.22892
3.21055
3.17982
3.147
3.12927
3.11524
3.09534
3.07305
3.06044
3.05358
3.04956
3.04799
3.04935
3.04947
3.04016
3.02485
3.01062
3.00554
3.00549
1
1
1
1
1
1
1
1
1
1
1
1
1
1
1
1
1
1
1
1
1
1
1
1
1
1
1
1
1
1
1
1
1
1
1
1
1
1
1
1
1
1
1
1
1
1
1
1
1
1
1
1
1
1
1.00094
1.01384
1.17377
1.73721
2.46635
2.90134
3.14469
3.21291
3.2009
3.17687
3.14296
3.12578
3.11229
3.09449
3.07634
3.05723
3.04689
3.04117
3.03847
3.04171
3.0464
3.04872
3.041
3.02481
3.00528
2.99836
1
1
1
1
1
1
1
1
1
1
1
1
1
1
1
1
1
1
1
1
1
1
1
1
1
1
1
1
1
1
1
1
1
1
1
1
1
1
1
1
1
1
1
1
1
1
1
1
1
1
1
1
1
1
1
1.00014
1.00862
1.08576
1.52458
2.28362
2.99364
3.1307
3.14324
3.14014
3.12215
3.11006
3.10428
3.09142
3.0784
3.06356
3.04516
3.03077
3.02384
3.02036
3.02736
3.04107
3.0469
3.04257
3.02586
3.00153
1
1
1
1
1
1
1
1
1
1
1
1
1
1
1
1
1
1
1
1
1
1
1
1
1
1
1
1
1
1
1
1
1
1
1
1
1
1
1
1
1
1
1
1
1
1
1
1
1
1
1
1
1
1
1
1
1.00008
1.00234
1.06329
1.34966
2.07784
2.78249
3.13968
3.17943
3.16045
3.13008
3.10431
3.08982
3.08313
3.08137
3.07394
3.05216
3.02177
3.00711
3.00457
3.01297
3.03572
3.04182
3.03736
3.01645
1
1
1
1
1
1
1
1
1
1
1
1
1
1
1
1
1
1
1
1
1
1
1
1
1
1
1
1
1
1
1
1
1
1
1
1
1
1
1
1
1
1
1
1
1
1
1
1
1
1
1
1
1
1
1
1
1
1.00001
1.00188
1.02539
1.26381
1.93046
2.65701
2.9186
3.06601
3.10206
3.0837
3.06098
3.0575
3.07129
3.08768
3.08548
3.06766
3.02833
2.99586
2.99291
3.00086
3.02427
3.03319
3.02416
1
1
1
1
1
1
1
1
1
1
1
1
1
1
1
1
1
1
1
1
1
1
1
1
1
1
1
1
1
1
1
1
1
1
1
1
1
1
1
1
1
1
1
1
1
1
1
1
1
1
1
1
1
1
1
1
1
1
1.00001
1.00045
1.01853
1.16539
1.72751
2.48007
3.03005
3.09036
3.05041
2.99985
2.9853
2.99565
3.04541
3.08827
3.08911
3.07066
3.03022
2.99087
2.98477
2.99103
3.0144
3.02067
1
1
1
1
1
1
1
1
1
1
1
1
1
1
1
1
1
1
1
1
1
1
1
1
1
1
1
1
1
1
1
1
1
1
1
1
1
1
1
1
1
1
1
1
1
1
1
1
1
1
1
1
1
1
1
1
1
1
1
1
1.00029
1.00826
1.11925
1.55761
2.32695
2.91793
3.08945
3.09292
3.02744
2.97531
2.9823
3.0251
3.07312
3.07847
3.06711
3.03247
2.99173
2.98054
2.98398
3.00094
1
1
1
1
1
1
1
1
1
1
1
1
1
1
1
1
1
1
1
1
1
1
1
1
1
1
1
1
1
1
1
1
1
1
1
1
1
1
1
1
1
1
1
1
1
1
1
1
1
1
1
1
1
1
1
1
1
1
1
1
1
1.00011
1.00492
1.07644
1.45279
2.1404
2.78109
3.05608
3.07898
3.04563
2.98024
2.97308
2.99876
3.04797
3.06108
3.054
3.03047
2.99165
2.97383
2.98801
1
1
1
1
1
1
1
1
1
1
1
1
1
1
1
1
1
1
1
1
1
1
1
1
1
1
1
1
1
1
1
1
1
1
1
1
1
1
1
1
1
1
1
1
1
1
1
1
1
1
1
1
1
1
1
1
1
1
1
1
1
1
1.00005
1.00274
1.04643
1.34911
2.00464
2.62676
3.01865
3.06593
3.05715
2.98785
2.9604
2.9718
3.01127
3.03952
3.03428
3.01453
2.98519
3.1941
1
1
1
1
1
1
1
1
1
1
1
1
1
1
1
1
1
1
1
1
1
1
1
1
1
1
1
1
1
1
1
1
1
1
1
1
1
1
1
1
1
1
1
1
1
1
1
1
1
1
1
1
1
1
1
1
1
1
1
1
1
1
1
1.00002
1.00135
1.031
1.26359
1.86801
2.4933
2.95649
3.04796
3.05036
3.0024
2.96267
2.96575
2.98586
3.01355
3.03413
3.13245
4.35561
1
1
1
1
1
1
1
1
1
1
1
1
1
1
1
1
1
1
1
1
1
1
1
1
1
1
1
1
1
1
1
1
1
1
1
1
1
1
1
1
1
1
1
1
1
1
1
1
1
1
1
1
1
1
1
1
1
1
1
1
1
1
1
1
1.00001
1.00078
1.01953
1.19439
1.74606
2.39547
2.86291
3.02668
3.03592
3.02072
2.96955
2.96326
3.01271
3.38771
4.29552
6.13128
1
1
1
1
1
1
1
1
1
1
1
1
1
1
1
1
1
1
1
1
1
1
1
1
1
1
1
1
1
1
1
1
1
1
1
1
1
1
1
1
1
1
1
1
1
1
1
1
1
1
1
1
1
1
1
1
1
1
1
1
1
1
1
1
1
1
1.00041
1.01277
1.14145
1.61862
2.28699
2.75895
2.97997
3.0255
3.07802
3.29261
3.88704
5.23384
6.58597
7.23586
1
1
1
1
1
1
1
1
1
1
1
1
1
1
1
1
1
1
1
1
1
1
1
1
1
1
1
1
1
1
1
1
1
1
1
1
1
1
1
1
1
1
1
1
1
1
1
1
1
1
1
1
1
1
1
1
1
1
1
1
1
1
1
1
1
1
1
1.00022
1.00817
1.09514
1.5165
2.22814
2.65934
3.14374
3.79588
4.65201
5.74026
6.49893
7.17907
7.42435
1
1
1
1
1
1
1
1
1
1
1
1
1
1
1
1
1
1
1
1
1
1
1
1
1
1
1
1
1
1
1
1
1
1
1
1
1
1
1
1
1
1
1
1
1
1
1
1
1
1
1
1
1
1
1
1
1
1
1
1
1
1
1
1
1
1
1
1
1.00011
1.00475
1.07615
1.48618
2.59006
4.03589
5.69884
7.08184
8.13053
8.17671
7.96076
7.51424
)
;

boundaryField
{
    inlet
    {
        type            fixedValue;
        value           uniform 1;
    }
    outlet
    {
        type            zeroGradient;
    }
    bottom
    {
        type            symmetryPlane;
    }
    top
    {
        type            symmetryPlane;
    }
    obstacle
    {
        type            zeroGradient;
    }
    defaultFaces
    {
        type            empty;
    }
}


// ************************************************************************* //
