/*--------------------------------*- C++ -*----------------------------------*\
| =========                 |                                                 |
| \\      /  F ield         | OpenFOAM: The Open Source CFD Toolbox           |
|  \\    /   O peration     | Version:  2206                                  |
|   \\  /    A nd           | Website:  www.openfoam.com                      |
|    \\/     M anipulation  |                                                 |
\*---------------------------------------------------------------------------*/
FoamFile
{
    version     2.0;
    format      ascii;
    arch        "LSB;label=32;scalar=64";
    class       volScalarField;
    location    "0.18";
    object      rho;
}
// * * * * * * * * * * * * * * * * * * * * * * * * * * * * * * * * * * * * * //

dimensions      [1 -3 0 0 0 0 0];

internalField   nonuniform List<scalar> 
4800
(
1.40001
1.40001
1.40001
1.40001
1.40001
1.40001
1.40001
1.40001
1.40001
1.40001
1.40001
1.40001
1.40001
1.40001
1.40001
1.40001
1.40001
1.40001
1.40001
1.40001
1.40001
1.40001
1.40001
1.40001
1.40001
1.40001
1.40001
1.40001
1.40001
1.40001
1.40001
1.40001
1.40001
1.40001
1.40001
1.40001
1.40001
1.40001
1.40001
1.40001
1.40001
1.40001
1.40001
1.40001
1.40001
1.40001
1.40001
1.40001
1.40001
1.40001
1.40001
1.40001
1.40001
1.40001
1.40001
1.40001
1.40001
1.40001
1.40001
1.40001
1.40001
1.40001
1.40001
1.40001
1.40001
1.40001
1.40001
1.40001
1.40001
1.40001
1.40001
1.40001
1.40001
1.40001
1.40001
1.40001
1.40001
1.40001
1.40001
1.40001
1.40001
1.40001
1.40001
1.40001
1.40001
1.40001
1.40001
1.40001
1.40001
1.40001
1.40001
1.40001
1.40001
1.40001
1.40001
1.40001
1.40001
1.40001
1.40001
1.40001
1.40001
1.40001
1.40001
1.40001
1.40001
1.40001
1.40001
1.40001
1.40001
1.40001
1.40001
1.40001
1.40001
1.40001
1.40001
1.40001
1.40001
1.40001
1.40001
1.40001
1.40001
1.40001
1.40001
1.40001
1.40001
1.40001
1.40001
1.40001
1.40001
1.40001
1.40001
1.40001
1.40001
1.40001
1.40001
1.40001
1.40001
1.40001
1.40001
1.40001
1.40001
1.40001
1.40001
1.40001
1.40001
1.40001
1.40001
1.40001
1.40001
1.40001
1.40001
1.40001
1.40001
1.40001
1.40001
1.40001
1.40001
1.40001
1.40001
1.40001
1.40001
1.40001
1.40001
1.40001
1.40001
1.40001
1.40001
1.40001
1.40001
1.40001
1.40001
1.40001
1.40001
1.40001
1.40001
1.40001
1.40001
1.40001
1.40001
1.40001
1.40001
1.40001
1.40001
1.40001
1.40001
1.40001
1.40001
1.40001
1.40001
1.40001
1.40001
1.40001
1.40001
1.40001
1.40001
1.40001
1.40001
1.40001
1.40001
1.40001
1.40001
1.40001
1.40001
1.40001
1.40001
1.40001
1.40001
1.40001
1.40001
1.40001
1.40001
1.40001
1.40001
1.40001
1.40001
1.40001
1.40001
1.40001
1.40001
1.40001
1.40001
1.40001
1.40001
1.40001
1.40001
1.40001
1.40001
1.40001
1.40001
1.40001
1.40001
1.40001
1.40001
1.40001
1.40001
1.40001
1.40001
1.40001
1.40001
1.40001
1.40001
1.40001
1.40001
1.40001
1.40001
1.40001
1.40001
1.40001
1.40001
1.40001
1.40001
1.40001
1.40001
1.40001
1.40001
1.40001
1.40001
1.40001
1.40001
1.40001
1.40001
1.40001
1.40001
1.40001
1.40001
1.40001
1.40001
1.40001
1.40001
1.40001
1.40001
1.40001
1.40001
1.40001
1.40001
1.40001
1.40001
1.40001
1.40001
1.40001
1.40001
1.40001
1.40001
1.40001
1.40001
1.40001
1.40001
1.40001
1.40001
1.40001
1.40001
1.40001
1.40001
1.40001
1.40001
1.40001
1.40001
1.40001
1.40001
1.40001
1.40001
1.40001
1.40001
1.40001
1.40001
1.40001
1.40001
1.40001
1.40001
1.40001
1.40001
1.40001
1.40001
1.40001
1.40001
1.40001
1.40001
1.40001
1.40001
1.40001
1.40001
1.40001
1.40001
1.40001
1.40001
1.40001
1.40001
1.40001
1.40001
1.40001
1.40001
1.40001
1.40001
1.40001
1.40001
1.40001
1.40001
1.40001
1.40001
1.40001
1.40001
1.40001
1.40001
1.40001
1.40001
1.40001
1.40001
1.40001
1.40001
1.40001
1.40001
1.40001
1.40001
1.40001
1.40001
1.40001
1.40001
1.40001
1.40001
1.40001
1.40001
1.40001
1.40001
1.40001
1.40001
1.40001
1.40001
1.40001
1.40001
1.40001
1.40001
1.40001
1.40001
1.40001
1.40001
1.40001
1.40001
1.40001
1.40001
1.40001
1.40001
1.40001
1.40001
1.40001
1.40001
1.40001
1.40001
1.40001
1.40001
1.40001
1.40001
1.40001
1.40001
1.40001
1.40001
1.40001
1.40001
1.40001
1.40001
1.40001
1.40001
1.40001
1.40001
1.40001
1.40001
1.40001
1.40001
1.40001
1.40001
1.40001
1.40001
1.40001
1.40001
1.40001
1.40001
1.40001
1.40001
1.40001
1.40001
1.40001
1.40001
1.40001
1.40001
1.40001
1.40001
1.40001
1.40001
1.40001
1.40001
1.40001
1.40001
1.40001
1.40001
1.40001
1.40001
1.40001
1.40001
1.40001
1.40001
1.40001
1.40001
1.40001
1.40001
1.40001
1.40001
1.40001
1.40001
1.40001
1.40001
1.40001
1.40001
1.40001
1.40001
1.40001
1.40001
1.40001
1.40001
1.40001
1.40001
1.40001
1.40001
1.40001
1.40001
1.40001
1.40001
1.40001
1.40001
1.40001
1.40001
1.40001
1.40001
1.40001
1.40001
1.40001
1.40001
1.40001
1.40001
1.40001
1.40001
1.40001
1.40001
1.40001
1.40001
1.40001
1.40001
1.40001
1.40001
1.40001
1.40001
1.40001
1.40001
1.40001
1.40001
1.40001
1.40001
1.40001
1.40001
1.40001
1.40001
1.40001
1.40001
1.40001
1.40001
1.40001
1.40001
1.40001
1.40001
1.40001
1.40001
1.40001
1.40001
1.40001
1.40001
1.40001
1.40001
1.40001
1.40001
1.40001
1.40001
1.40001
1.40001
1.40001
1.40001
1.40001
1.40001
1.40001
1.40001
1.40001
1.40001
1.40001
1.40001
1.40001
1.40001
1.40001
1.40001
1.40001
1.40001
1.40001
1.40001
1.40001
1.40001
1.40001
1.40001
1.40001
1.40001
1.40001
1.40001
1.40001
1.40001
1.40001
1.40001
1.40001
1.40001
1.40001
1.40001
1.40001
1.40001
1.40001
1.40001
1.40001
1.40001
1.40001
1.40001
1.40001
1.40001
1.40001
1.40001
1.40001
1.40001
1.40001
1.40001
1.40001
1.40001
1.40001
1.40001
1.40001
1.40001
1.40001
1.40001
1.40001
1.40001
1.40001
1.40001
1.40001
1.40001
1.40001
1.40001
1.40001
1.40001
1.40001
1.40001
1.40001
1.40001
1.40001
1.40001
1.40001
1.40001
1.40001
1.40001
1.40001
1.40001
1.40001
1.40001
1.40001
1.40001
1.40001
1.40001
1.40001
1.40001
1.40001
1.40001
1.40001
1.40001
1.40001
1.40001
1.40001
1.40001
1.40001
1.40001
1.40001
1.40001
1.40001
1.40001
1.40001
1.40001
1.40001
1.40001
1.40001
1.40001
1.40001
1.40001
1.40001
1.40001
1.40001
1.40001
1.40001
1.40001
1.40001
1.40001
1.40001
1.40001
1.40001
1.40001
1.40001
1.40001
1.40001
1.40001
1.40001
1.40001
1.40001
1.40001
1.40001
1.40001
1.40001
1.40001
1.40001
1.40001
1.40001
1.40001
1.40001
1.40001
1.40001
1.40001
1.40001
1.40001
1.40001
1.40001
1.40001
1.40001
1.40001
1.40001
1.40001
1.40001
1.40001
1.40001
1.40001
1.40001
1.40001
1.40001
1.40001
1.40001
1.40001
1.40001
1.40001
1.40001
1.40001
1.40001
1.40001
1.40001
1.40001
1.40001
1.40001
1.40001
1.40001
1.40001
1.40001
1.40001
1.40001
1.40001
1.40001
1.40001
1.40001
1.40001
1.40001
1.40001
1.40001
1.40001
1.40001
1.40001
1.40001
1.40001
1.40001
1.40001
1.40001
1.40001
1.40001
1.40001
1.40001
1.40001
1.40001
1.40001
1.40001
1.40001
1.40001
1.40001
1.40001
1.40001
1.40001
1.40001
1.40001
1.40001
1.40001
1.40001
1.40001
1.40001
1.40001
1.40001
1.40001
1.40001
1.40001
1.40001
1.40001
1.40001
1.40001
1.40001
1.40001
1.40001
1.40001
1.40001
1.40001
1.40001
1.40001
1.40001
1.40001
1.40001
1.40001
1.40001
1.40001
1.40001
1.40001
1.40001
1.40001
1.40001
1.40001
1.40001
1.40001
1.40001
1.40001
1.40001
1.40001
1.40001
1.40001
1.40001
1.40001
1.40001
1.40001
1.40001
1.40001
1.40001
1.40001
1.40001
1.40001
1.40001
1.40001
1.40001
1.40001
1.40001
1.40001
1.40001
1.40001
1.40001
1.40001
1.40001
1.40001
1.40001
1.40001
1.40001
1.40001
1.40001
1.40001
1.40001
1.40001
1.40001
1.40001
1.40001
1.40001
1.40001
1.40001
1.40001
1.40001
1.40001
1.40001
1.40001
1.40001
1.40001
1.40001
1.40001
1.40001
1.40001
1.40001
1.40001
1.40001
1.40001
1.40001
1.40001
1.40001
1.40001
1.40001
1.40001
1.40001
1.40001
1.40001
1.40001
1.40001
1.40001
1.40001
1.40001
1.40001
1.40001
1.40001
1.40001
1.40001
1.40001
1.40001
1.40001
1.40001
1.40001
1.40001
1.40001
1.40001
1.40001
1.40001
1.40001
1.40001
1.40001
1.40001
1.40001
1.40001
1.40001
1.40001
1.40001
1.40001
1.40001
1.40001
1.40001
1.40001
1.40001
1.40001
1.40001
1.40001
1.40001
1.40001
1.40001
1.40001
1.40001
1.40001
1.40001
1.40001
1.40001
1.40001
1.40001
1.40001
1.40001
1.40001
1.40001
1.40001
1.40001
1.40001
1.40001
1.40001
1.40001
1.40001
1.40001
1.40001
1.40001
1.40001
1.40001
1.40001
1.40001
1.40001
1.40001
1.40001
1.40001
1.40001
1.40001
1.40001
1.40001
1.40001
1.40001
1.40001
1.40001
1.40001
1.40001
1.40001
1.40001
1.40001
1.40001
1.40001
1.40001
1.40001
1.40001
1.40001
1.40001
1.40001
1.40001
1.40001
1.40001
1.40001
1.40001
1.40001
1.40001
1.40001
1.40001
1.40001
1.40001
1.40001
1.40001
1.40001
1.40001
1.40001
1.40001
1.40001
1.40001
1.40001
1.40001
1.40001
1.40001
1.40001
1.40001
1.40001
1.40001
1.40001
1.40001
1.40001
1.40001
1.40001
1.40001
1.40001
1.40001
1.40001
1.40001
1.40001
1.40001
1.40001
1.40001
1.40001
1.40001
1.40001
1.40001
1.40001
1.40001
1.40001
1.40001
1.40001
1.40001
1.40001
1.40001
1.40001
1.40001
1.40001
1.40001
1.40001
1.40001
1.40001
1.40001
1.40001
1.40001
1.40001
1.40001
1.40001
1.40001
1.40001
1.40001
1.40001
1.40001
1.40001
1.40001
1.40001
1.40001
1.40001
1.40001
1.40001
1.40001
1.40001
1.40001
1.40001
1.40001
1.40001
1.40001
1.40001
1.40001
1.40001
1.40001
1.40001
1.40001
1.40001
1.40001
1.40001
1.40001
1.40001
1.40001
1.40001
1.40001
1.40001
1.40001
1.40001
1.40001
1.40001
1.40001
1.40001
1.40001
1.40001
1.40001
1.40001
1.40001
1.40001
1.40001
1.40001
1.40001
1.40001
1.40001
1.40001
1.40001
1.40001
1.40001
1.40001
1.40001
1.40001
1.40001
1.40001
1.40001
1.40001
1.40001
1.40001
1.40001
1.40001
1.40001
1.40001
1.40001
1.40001
1.40001
1.40001
1.40001
1.40001
1.40001
1.40001
1.40001
1.40001
1.40001
1.40001
1.40001
1.40001
1.40001
1.40001
1.40001
1.40001
1.40001
1.40001
1.40001
1.40001
1.40001
1.40001
1.40001
1.40001
1.40001
1.40001
1.40001
1.40001
1.40001
1.40001
1.40001
1.40001
1.40001
1.40001
1.40001
1.40001
1.40001
1.40001
1.40001
1.40001
1.40001
1.40001
1.40001
1.40001
1.40001
1.40001
1.40001
1.40001
1.40001
1.40001
1.40001
1.40001
1.40001
1.40001
1.40001
1.40001
1.40001
1.40001
1.40001
1.40001
1.40001
1.40001
1.40001
1.40001
1.40001
1.40001
1.40001
1.40001
1.40001
1.40001
1.40001
1.40001
1.40001
1.40001
1.40001
1.40001
1.40001
1.40001
1.40001
1.40001
1.40001
1.40001
1.40001
1.40001
1.40001
1.40001
1.40001
1.40001
1.40001
1.40001
1.40001
1.40001
1.40001
1.40001
1.40001
1.40001
1.40001
1.40001
1.40001
1.40001
1.40001
1.40001
1.40001
1.40001
1.40001
1.40001
1.40001
1.40001
1.40001
1.40001
1.40001
1.40001
1.40001
1.40001
1.40001
1.40001
1.40001
1.40001
1.40001
1.40001
1.40001
1.40001
1.40001
1.40001
1.40001
1.40001
1.40001
1.40001
1.40001
1.40001
1.40001
1.40001
1.40001
1.40001
1.40001
1.40001
1.40001
1.40001
1.40001
1.40001
1.40001
1.40001
1.40001
1.40001
1.40001
1.40001
1.40001
1.40001
1.40001
1.40001
1.40001
1.40001
1.40001
1.40001
1.40001
1.40001
1.40001
1.40001
1.40001
1.40001
1.40001
1.40001
1.40001
1.40001
1.40001
1.40001
1.40001
1.40001
1.40001
1.40001
1.40001
1.40001
1.40001
1.40001
1.40001
1.40001
1.40001
1.40001
1.40001
1.40001
1.40001
1.40001
1.40001
1.40001
1.40001
1.40001
1.40001
1.40001
1.40001
1.40001
1.40001
1.40001
1.40001
1.40001
1.40001
1.40001
1.40001
1.40001
1.40001
1.40001
1.40001
1.40001
1.40001
1.40001
1.40001
1.40001
1.40001
1.40001
1.40001
1.40001
1.40001
1.40001
1.40001
1.40001
1.40001
1.40001
1.40001
1.40001
1.40001
1.40001
1.40001
1.40001
1.40001
1.40001
1.40001
1.40001
1.40001
1.40001
1.40001
1.40001
1.40001
1.40001
1.40001
1.40001
1.40001
1.40001
1.40001
1.40001
1.40001
1.40001
1.40001
1.40001
1.40001
1.40001
1.40001
1.40001
1.40001
1.40001
1.40001
1.40001
1.40001
1.40001
1.40001
1.40001
1.40001
1.40001
1.40001
1.40001
1.40001
1.40001
1.40001
1.40001
1.40001
1.40001
1.40001
1.40001
1.40001
1.40001
1.40001
1.40001
1.40001
1.40001
1.40001
1.40001
1.40001
1.40001
1.40001
1.40001
1.40001
1.40001
1.40001
1.40001
1.40001
1.40001
1.40001
1.40001
1.40001
1.40001
1.40001
1.40001
1.40001
1.40001
1.40001
1.40001
1.40001
1.40001
1.40001
1.40001
1.40001
1.40001
1.40001
1.40001
1.40001
1.40001
1.40001
1.40001
1.40001
1.40001
1.40001
1.40001
1.40001
1.40001
1.40001
1.40001
1.40001
1.40001
1.40001
1.40001
1.40001
1.40001
1.40001
1.40001
1.40001
1.40001
1.40001
1.40001
1.40001
1.40001
1.40001
1.40001
1.40001
1.40001
1.40001
1.40001
1.40001
1.40001
1.40001
1.40001
1.40001
1.40001
1.40001
1.40001
1.40001
1.40001
1.40001
1.40001
1.40001
1.40001
1.40001
1.40001
1.40001
1.40001
1.40001
1.40001
1.40001
1.40001
1.40001
1.40001
1.40001
1.40001
1.40001
1.40001
1.40001
1.40001
1.40001
1.40001
1.40001
1.40001
1.40001
1.40001
1.40001
1.40001
1.40001
1.40001
1.40001
1.40001
1.40001
1.40001
1.40001
1.40001
1.40001
1.40001
1.40001
1.40001
1.40001
1.40001
1.40001
1.40001
1.40001
1.40001
1.40001
1.40001
1.40001
1.40001
1.40001
1.40001
1.40001
1.40001
1.40001
1.40001
1.40001
1.40001
1.40001
1.40001
1.40001
1.40001
1.40001
1.40001
1.40001
1.40001
1.40001
1.40001
1.40001
1.40001
1.40001
1.40001
1.40001
1.40001
1.40001
1.40001
1.40001
1.40001
1.40001
1.40001
1.40001
1.40001
1.40001
1.40001
1.40001
1.40001
1.40001
1.40001
1.40001
1.40001
1.40001
1.40001
1.40001
1.40001
1.40001
1.40001
1.40001
1.40001
1.40001
1.40001
1.40001
1.40001
1.40001
1.40001
1.40001
1.40001
1.40001
1.40001
1.40001
1.40001
1.40001
1.40001
1.40001
1.40001
1.40001
1.40001
1.40001
1.40001
1.40001
1.40001
1.40001
1.40001
1.40001
1.40001
1.40001
1.40001
1.40001
1.40001
1.40001
1.40001
1.40001
1.40001
1.40001
1.40001
1.40001
1.40001
1.40001
1.40001
1.40001
1.40001
1.40001
1.40001
1.40001
1.40001
1.40001
1.40001
1.40001
1.40001
1.40001
1.40001
1.40001
1.40001
1.40001
1.40001
1.40001
1.40001
1.40001
1.40001
1.40001
1.40001
1.40001
1.40001
1.40001
1.40001
1.40001
1.40001
1.40001
1.40001
1.40001
1.40001
1.40001
1.40001
1.40001
1.40001
1.40001
1.40001
1.40001
1.40001
1.40001
1.40001
1.40001
1.40001
1.40001
1.40001
1.40001
1.40001
1.40001
1.40001
1.40001
1.40001
1.40001
1.40001
1.40001
1.40001
1.40001
1.40001
1.65535
2.02616
2.41427
2.84332
3.22651
3.49056
3.79135
4.18617
4.27148
4.37016
4.48027
4.47665
4.39446
4.19163
3.94223
3.75364
3.60682
3.44854
3.37124
3.37939
3.39302
3.39244
3.40471
3.42505
3.45858
3.48786
3.50371
3.5066
3.50376
3.49907
3.50229
3.50674
3.50774
3.50808
3.50617
3.50483
3.50831
3.51397
3.51949
3.52426
3.52548
3.52413
3.52326
3.52252
3.52093
3.51613
3.508
3.50048
3.49614
3.49576
3.49719
3.50028
3.50269
3.5048
3.50902
3.51363
3.51797
3.52277
3.52801
3.53189
3.53251
3.53177
3.5293
3.52335
3.51287
3.50468
3.50198
3.50113
3.50154
3.5046
3.50949
3.51337
3.51459
3.51482
3.51464
3.51407
3.51414
3.51527
3.52
3.52532
1.3996
1.40541
1.42755
1.46228
1.56995
1.75186
1.92417
2.18766
2.52026
2.81551
3.1088
3.37893
3.55874
3.56703
3.676
3.77707
3.74098
3.65523
3.58854
3.58088
3.56759
3.52721
3.49246
3.45534
3.43562
3.43816
3.44913
3.46199
3.47114
3.48139
3.49256
3.50243
3.50628
3.5063
3.50356
3.49756
3.49237
3.49355
3.49639
3.49868
3.50182
3.50773
3.51209
3.51376
3.51398
3.511
3.50794
3.50806
3.50855
3.50924
3.50969
3.50906
3.50684
3.50352
3.50013
3.4998
3.50064
3.50306
3.50723
3.51365
3.51956
3.52153
3.52106
3.51791
3.51376
3.51101
3.51076
3.51131
3.51291
3.51553
3.51709
3.51723
3.51689
3.51508
3.51159
3.50944
3.50915
3.50963
3.51189
3.51597
1.40001
1.40001
1.4
1.4
1.40001
1.39981
1.40155
1.41324
1.46625
1.56687
1.78614
2.11296
2.57249
3.07682
3.44711
3.75503
3.80371
3.77854
3.76248
3.73863
3.70131
3.63741
3.50819
3.42661
3.39909
3.40592
3.41429
3.42325
3.43623
3.44971
3.4647
3.47958
3.48793
3.48902
3.48737
3.48461
3.48044
3.47911
3.47936
3.47821
3.47632
3.47512
3.47735
3.48135
3.48525
3.48997
3.49555
3.49933
3.50271
3.50658
3.50906
3.5095
3.50773
3.50253
3.49528
3.48951
3.48783
3.4878
3.48824
3.49006
3.49415
3.49901
3.5023
3.50407
3.50534
3.50632
3.5075
3.50986
3.51289
3.51573
3.51692
3.51689
3.5159
3.51344
3.50949
3.50573
3.50465
3.50464
3.50538
3.50785
1.40001
1.40001
1.40001
1.40001
1.40001
1.40001
1.40001
1.40001
1.40001
1.3998
1.4002
1.40911
1.45612
1.65867
1.98427
2.51086
2.9656
3.26417
3.53306
3.56302
3.56851
3.58759
3.57319
3.53366
3.49672
3.48153
3.45376
3.4327
3.40597
3.39184
3.39409
3.40787
3.43264
3.45125
3.46079
3.46407
3.46404
3.46573
3.46455
3.46015
3.45545
3.45044
3.45
3.45151
3.45294
3.45537
3.4611
3.46968
3.4807
3.49125
3.49746
3.4984
3.49644
3.49142
3.48444
3.47778
3.47486
3.47423
3.47473
3.47677
3.47912
3.47991
3.48052
3.4817
3.48402
3.48708
3.49109
3.49684
3.50323
3.50807
3.5098
3.50973
3.50812
3.5048
3.50114
3.49903
3.4983
3.49832
3.49904
3.5008
1.40001
1.40001
1.40001
1.40001
1.40001
1.40001
1.40001
1.40001
1.40001
1.40001
1.40001
1.4
1.40001
1.39995
1.40632
1.45692
1.67934
1.9987
2.47713
2.91271
3.26328
3.53867
3.60782
3.61302
3.60308
3.57745
3.53189
3.45424
3.38153
3.3661
3.3681
3.38044
3.40284
3.41391
3.42308
3.42929
3.43395
3.4384
3.44489
3.44845
3.44749
3.44429
3.44311
3.44258
3.44095
3.43822
3.43598
3.4372
3.44254
3.45061
3.45945
3.46564
3.46861
3.46993
3.47017
3.46868
3.46915
3.46984
3.47036
3.47152
3.4717
3.47131
3.46989
3.46843
3.46811
3.46874
3.4709
3.47511
3.47953
3.48263
3.48483
3.48594
3.4859
3.48499
3.48522
3.48614
3.48714
3.48885
3.49174
3.49338
1.40001
1.40001
1.40001
1.40001
1.40001
1.40001
1.40001
1.40001
1.40001
1.40001
1.40001
1.40001
1.40001
1.4
1.4
1.39992
1.40037
1.40797
1.46119
1.68382
2.00765
2.48153
2.88562
3.2207
3.45308
3.46027
3.4653
3.49058
3.46586
3.4293
3.42216
3.42178
3.41932
3.41173
3.38828
3.38184
3.38381
3.39478
3.41726
3.43681
3.44449
3.45168
3.45532
3.45569
3.45197
3.43908
3.42855
3.42515
3.42562
3.42749
3.42992
3.43309
3.43756
3.44344
3.44975
3.45632
3.46229
3.46549
3.46674
3.46781
3.4687
3.46868
3.46652
3.4619
3.45838
3.45745
3.4579
3.45935
3.46044
3.46111
3.46174
3.46229
3.46289
3.46385
3.46574
3.46842
3.47184
3.47655
3.48128
3.4833
1.40001
1.40001
1.40001
1.40001
1.40001
1.40001
1.40001
1.40001
1.40001
1.40001
1.40001
1.40001
1.40001
1.40001
1.40001
1.4
1.4
1.40001
1.39993
1.40072
1.40975
1.47482
1.70058
2.03497
2.52583
2.90337
3.25757
3.45425
3.49983
3.51156
3.50321
3.48697
3.46196
3.43158
3.38079
3.3609
3.36337
3.37904
3.3985
3.41746
3.43445
3.44965
3.45648
3.45762
3.45593
3.45008
3.44071
3.4306
3.427
3.42604
3.42444
3.42309
3.42343
3.42538
3.43013
3.43739
3.44684
3.45541
3.46011
3.46283
3.46431
3.4639
3.45987
3.45333
3.449
3.44726
3.44714
3.4479
3.44905
3.44988
3.4502
3.45026
3.45058
3.45174
3.45373
3.45642
3.46038
3.4654
3.46954
3.47159
1.40001
1.40001
1.40001
1.40001
1.40001
1.40001
1.40001
1.40001
1.40001
1.40001
1.40001
1.40001
1.40001
1.40001
1.40001
1.40001
1.40001
1.40001
1.4
1.4
1.40001
1.39995
1.40128
1.41256
1.5007
1.74958
2.10167
2.5807
2.94202
3.2901
3.42643
3.43062
3.45586
3.46353
3.43861
3.40836
3.39935
3.39572
3.40212
3.40376
3.40522
3.41285
3.42355
3.43659
3.44755
3.4541
3.45895
3.46066
3.45871
3.45551
3.44942
3.43914
3.43011
3.42713
3.42748
3.43135
3.4371
3.44055
3.44285
3.44472
3.44637
3.44761
3.44823
3.44806
3.44801
3.44842
3.44889
3.45044
3.45139
3.45142
3.45094
3.45044
3.45036
3.45135
3.45323
3.45553
3.45847
3.46132
3.46337
3.46404
1.40001
1.40001
1.40001
1.40001
1.40001
1.40001
1.40001
1.40001
1.40001
1.40001
1.40001
1.40001
1.40001
1.40001
1.40001
1.40001
1.40001
1.40001
1.40001
1.4
1.4
1.4
1.4
1.39999
1.40002
1.40274
1.42001
1.54309
1.81512
2.23246
2.67362
3.02133
3.34915
3.43958
3.47752
3.48215
3.47564
3.44483
3.42649
3.41405
3.39823
3.39099
3.39081
3.39623
3.41187
3.4333
3.45194
3.46616
3.47462
3.47625
3.47485
3.4697
3.46176
3.45209
3.44553
3.44247
3.43949
3.43673
3.43442
3.43398
3.43426
3.43433
3.43528
3.43877
3.44291
3.44699
3.45107
3.45422
3.45558
3.45599
3.45615
3.45621
3.45547
3.45464
3.45531
3.45688
3.45832
3.45878
3.45876
3.45799
1.40001
1.40001
1.40001
1.40001
1.40001
1.40001
1.40001
1.40001
1.40001
1.40001
1.40001
1.40001
1.40001
1.40001
1.40001
1.40001
1.40001
1.40001
1.40001
1.40001
1.40001
1.40001
1.40001
1.4
1.4
1.40001
1.39998
1.40028
1.40526
1.43762
1.61257
1.90103
2.34538
2.77049
3.1203
3.39944
3.45531
3.4533
3.47579
3.4794
3.45989
3.43188
3.40902
3.3989
3.39862
3.40626
3.42015
3.43836
3.45751
3.46879
3.47403
3.47656
3.47594
3.47392
3.47415
3.47279
3.46778
3.45945
3.44907
3.44121
3.43818
3.4375
3.43762
3.43879
3.44172
3.44485
3.44812
3.45152
3.45397
3.45595
3.45733
3.45771
3.45726
3.45639
3.45523
3.45478
3.45401
3.45332
3.45303
3.4525
1.40001
1.40001
1.40001
1.40001
1.40001
1.40001
1.40001
1.40001
1.40001
1.40001
1.40001
1.40001
1.40001
1.40001
1.40001
1.40001
1.40001
1.40001
1.40001
1.40001
1.40001
1.40001
1.40001
1.40001
1.40001
1.40001
1.4
1.4
1.40001
1.39998
1.40112
1.4098
1.46714
1.70807
2.07523
2.56871
2.93078
3.25091
3.42191
3.48398
3.49219
3.49158
3.47724
3.45517
3.43729
3.42654
3.42498
3.42908
3.43855
3.44319
3.44445
3.44871
3.45719
3.46871
3.47895
3.48212
3.48085
3.47768
3.47506
3.47076
3.46514
3.45915
3.45251
3.44804
3.44715
3.4485
3.45103
3.4511
3.45079
3.45099
3.45225
3.45354
3.45358
3.45269
3.45204
3.45176
3.45225
3.45348
3.45422
3.45428
1.40001
1.40001
1.40001
1.40001
1.40001
1.40001
1.40001
1.40001
1.40001
1.40001
1.40001
1.40001
1.40001
1.40001
1.40001
1.40001
1.40001
1.40001
1.40001
1.40001
1.40001
1.40001
1.40001
1.40001
1.40001
1.40001
1.40001
1.4
1.4
1.4
1.4
1.4
1.40006
1.40367
1.42468
1.55775
1.8679
2.29006
2.73651
3.08171
3.3506
3.45436
3.46414
3.47731
3.50767
3.5073
3.49342
3.47556
3.45846
3.44198
3.43366
3.43173
3.43556
3.44641
3.45813
3.47078
3.4793
3.48207
3.48218
3.48242
3.48115
3.47986
3.47671
3.47203
3.46776
3.46438
3.46084
3.45732
3.45444
3.45373
3.45372
3.4529
3.45176
3.45101
3.45062
3.45064
3.45147
3.45299
3.45412
3.45538
1.40001
1.40001
1.40001
1.40001
1.40001
1.40001
1.40001
1.40001
1.40001
1.40001
1.40001
1.40001
1.40001
1.40001
1.40001
1.40001
1.40001
1.40001
1.40001
1.40001
1.40001
1.40001
1.40001
1.40001
1.40001
1.40001
1.40001
1.40001
1.40001
1.40001
1.40001
1.4
1.4
1.40001
1.39999
1.40083
1.4108
1.45925
1.69612
2.09142
2.59375
2.93665
3.21969
3.38403
3.47819
3.51467
3.52213
3.51952
3.51548
3.50195
3.4815
3.46166
3.45091
3.45154
3.45821
3.46304
3.46486
3.4658
3.468
3.47458
3.48388
3.48614
3.48518
3.48329
3.4815
3.48046
3.47888
3.47547
3.47089
3.46678
3.46277
3.45859
3.45534
3.45385
3.45298
3.45275
3.45373
3.45515
3.4554
3.45566
1.40001
1.40001
1.40001
1.40001
1.40001
1.40001
1.40001
1.40001
1.40001
1.40001
1.40001
1.40001
1.40001
1.40001
1.40001
1.40001
1.40001
1.40001
1.40001
1.40001
1.40001
1.40001
1.40001
1.40001
1.40001
1.40001
1.40001
1.40001
1.40001
1.40001
1.40001
1.40001
1.4
1.4
1.4
1.4
1.4
1.40008
1.4047
1.43126
1.57118
1.93851
2.42726
2.83315
3.13797
3.34592
3.4609
3.49864
3.51144
3.51883
3.51752
3.51559
3.50823
3.50067
3.49476
3.48477
3.47404
3.46984
3.47056
3.47214
3.47222
3.47257
3.47369
3.47702
3.48021
3.48171
3.48185
3.48098
3.47919
3.47773
3.4756
3.47232
3.46964
3.46793
3.46655
3.4653
3.46406
3.46159
3.45895
3.45807
1.40001
1.40001
1.40001
1.40001
1.40001
1.40001
1.40001
1.40001
1.40001
1.40001
1.40001
1.40001
1.40001
1.40001
1.40001
1.40001
1.40001
1.40001
1.40001
1.40001
1.40001
1.40001
1.40001
1.40001
1.40001
1.40001
1.40001
1.40001
1.40001
1.40001
1.40001
1.40001
1.40001
1.40001
1.40001
1.40001
1.4
1.4
1.40001
1.40001
1.4015
1.42089
1.49913
1.79595
2.27721
2.80144
3.08642
3.28407
3.39619
3.47422
3.49859
3.5127
3.52616
3.53346
3.53367
3.52795
3.51814
3.51191
3.5051
3.49279
3.4788
3.4727
3.47226
3.47411
3.47648
3.47768
3.47881
3.48058
3.4828
3.48293
3.48007
3.47753
3.47706
3.47717
3.47869
3.47967
3.47959
3.47775
3.47332
3.46679
1.40001
1.40001
1.40001
1.40001
1.40001
1.40001
1.40001
1.40001
1.40001
1.40001
1.40001
1.40001
1.40001
1.40001
1.40001
1.40001
1.40001
1.40001
1.40001
1.40001
1.40001
1.40001
1.40001
1.40001
1.40001
1.40001
1.40001
1.40001
1.40001
1.40001
1.40001
1.40001
1.40001
1.40001
1.40001
1.40001
1.40001
1.4
1.4
1.4
1.40001
1.40001
1.40044
1.41225
1.46902
1.70134
2.17678
2.75765
3.08725
3.27242
3.3606
3.40562
3.45282
3.49588
3.52129
3.52577
3.52961
3.532
3.53087
3.52294
3.5095
3.49763
3.49217
3.48889
3.48636
3.48369
3.48233
3.48267
3.48255
3.48173
3.48035
3.47983
3.48046
3.48319
3.48508
3.48729
3.48807
3.48785
3.48566
3.47893
1.40001
1.40001
1.40001
1.40001
1.40001
1.40001
1.40001
1.40001
1.40001
1.40001
1.40001
1.40001
1.40001
1.40001
1.40001
1.40001
1.40001
1.40001
1.40001
1.40001
1.40001
1.40001
1.40001
1.40001
1.40001
1.40001
1.40001
1.40001
1.40001
1.40001
1.40001
1.40001
1.40001
1.40001
1.40001
1.40001
1.40001
1.40001
1.40001
1.40001
1.4
1.4
1.4
1.4
1.40022
1.40697
1.4617
1.65191
2.09481
2.69655
3.17932
3.27778
3.35681
3.39507
3.43516
3.45772
3.47606
3.49713
3.5131
3.51804
3.51492
3.50877
3.50839
3.5104
3.51277
3.51045
3.5033
3.49634
3.49162
3.48827
3.4862
3.48462
3.48367
3.48371
3.48667
3.49053
3.49116
3.49076
3.48902
3.48591
1.40001
1.40001
1.40001
1.40001
1.40001
1.40001
1.40001
1.40001
1.40001
1.40001
1.40001
1.40001
1.40001
1.40001
1.40001
1.40001
1.40001
1.40001
1.40001
1.40001
1.40001
1.40001
1.40001
1.40001
1.40001
1.40001
1.40001
1.40001
1.40001
1.40001
1.40001
1.40001
1.40001
1.40001
1.40001
1.40001
1.40001
1.40001
1.40001
1.40001
1.40001
1.40001
1.4
1.4
1.4
1.4
1.40022
1.40451
1.45486
1.62854
2.0877
2.66834
3.19465
3.38242
3.4156
3.43428
3.43714
3.44451
3.45943
3.47071
3.47427
3.47991
3.49393
3.51264
3.52204
3.52214
3.518
3.51202
3.50749
3.50502
3.50351
3.50056
3.49559
3.49079
3.48974
3.48974
3.48966
3.48879
3.48876
3.4888
1.40001
1.40001
1.40001
1.40001
1.40001
1.40001
1.40001
1.40001
1.40001
1.40001
1.40001
1.40001
1.40001
1.40001
1.40001
1.40001
1.40001
1.40001
1.40001
1.40001
1.40001
1.40001
1.40001
1.40001
1.40001
1.40001
1.40001
1.40001
1.40001
1.40001
1.40001
1.40001
1.40001
1.40001
1.40001
1.40001
1.40001
1.40001
1.40001
1.40001
1.40001
1.40001
1.40001
1.40001
1.4
1.4
1.4
1.4
1.40022
1.40378
1.4576
1.65887
2.12829
2.70655
3.20403
3.44442
3.483
3.4898
3.46875
3.46016
3.45895
3.45792
3.46641
3.48134
3.49498
3.50246
3.50267
3.5021
3.50372
3.506
3.50861
3.50987
3.50969
3.50754
3.50334
3.49821
3.49294
3.48939
3.48804
3.48786
1.40001
1.40001
1.40001
1.40001
1.40001
1.40001
1.40001
1.40001
1.40001
1.40001
1.40001
1.40001
1.40001
1.40001
1.40001
1.40001
1.40001
1.40001
1.40001
1.40001
1.40001
1.40001
1.40001
1.40001
1.40001
1.40001
1.40001
1.40001
1.40001
1.40001
1.40001
1.40001
1.40001
1.40001
1.40001
1.40001
1.40001
1.40001
1.40001
1.40001
1.40001
1.40001
1.40001
1.40001
1.40001
1.40001
1.4
1.4
1.4
1.4
1.40033
1.40514
1.46528
1.70101
2.19523
2.79724
3.2389
3.4442
3.50621
3.52331
3.51919
3.49944
3.4899
3.49155
3.48988
3.4881
3.48548
3.48172
3.47968
3.48291
3.48969
3.49931
3.50663
3.5089
3.50905
3.509
3.50561
3.49707
3.48907
3.48731
1.40001
1.40001
1.40001
1.40001
1.40001
1.40001
1.40001
1.40001
1.40001
1.40001
1.40001
1.40001
1.40001
1.40001
1.40001
1.40001
1.40001
1.40001
1.40001
1.40001
1.40001
1.40001
1.40001
1.40001
1.40001
1.40001
1.40001
1.40001
1.40001
1.40001
1.40001
1.40001
1.40001
1.40001
1.40001
1.40001
1.40001
1.40001
1.40001
1.40001
1.40001
1.40001
1.40001
1.40001
1.40001
1.40001
1.40001
1.40001
1.4
1.4
1.4
1.4
1.40046
1.4074
1.48691
1.80288
2.34491
2.86851
3.27159
3.47454
3.50142
3.51475
3.53616
3.54551
3.54258
3.52985
3.51252
3.49284
3.47808
3.47456
3.47561
3.47823
3.48551
3.50076
3.51226
3.51413
3.51214
3.5041
3.49078
3.48662
1.40001
1.40001
1.40001
1.40001
1.40001
1.40001
1.40001
1.40001
1.40001
1.40001
1.40001
1.40001
1.40001
1.40001
1.40001
1.40001
1.40001
1.40001
1.40001
1.40001
1.40001
1.40001
1.40001
1.40001
1.40001
1.40001
1.40001
1.40001
1.40001
1.40001
1.40001
1.40001
1.40001
1.40001
1.40001
1.40001
1.40001
1.40001
1.40001
1.40001
1.40001
1.40001
1.40001
1.40001
1.40001
1.40001
1.40001
1.40001
1.40001
1.40001
1.4
1.4
1.4
1.40001
1.40098
1.41483
1.52711
1.93245
2.55154
3.0402
3.26893
3.40392
3.48034
3.51839
3.54091
3.54683
3.54314
3.53016
3.51671
3.50218
3.48649
3.47945
3.48118
3.49305
3.50567
3.51091
3.5118
3.50855
3.49703
3.48844
1.40001
1.40001
1.40001
1.40001
1.40001
1.40001
1.40001
1.40001
1.40001
1.40001
1.40001
1.40001
1.40001
1.40001
1.40001
1.40001
1.40001
1.40001
1.40001
1.40001
1.40001
1.40001
1.40001
1.40001
1.40001
1.40001
1.40001
1.40001
1.40001
1.40001
1.40001
1.40001
1.40001
1.40001
1.40001
1.40001
1.40001
1.40001
1.40001
1.40001
1.40001
1.40001
1.40001
1.40001
1.40001
1.40001
1.40001
1.40001
1.40001
1.40001
1.40001
1.40001
1.40001
1.4
1.4
1.40003
1.40222
1.43278
1.60382
2.11384
2.83775
3.22055
3.31165
3.37177
3.44388
3.48315
3.50324
3.51875
3.52668
3.52463
3.51168
3.50036
3.49564
3.4974
3.50514
3.51028
3.51201
3.51208
3.50929
3.49998
1.40001
1.40001
1.40001
1.40001
1.40001
1.40001
1.40001
1.40001
1.40001
1.40001
1.40001
1.40001
1.40001
1.40001
1.40001
1.40001
1.40001
1.40001
1.40001
1.40001
1.40001
1.40001
1.40001
1.40001
1.40001
1.40001
1.40001
1.40001
1.40001
1.40001
1.40001
1.40001
1.40001
1.40001
1.40001
1.40001
1.40001
1.40001
1.40001
1.40001
1.40001
1.40001
1.40001
1.40001
1.40001
1.40001
1.40001
1.40001
1.40001
1.40001
1.40001
1.40001
1.40001
1.40001
1.4
1.4
1.4
1.40015
1.40573
1.47263
1.79167
2.40782
3.08438
3.35715
3.42236
3.41679
3.42207
3.44925
3.48052
3.50284
3.51211
3.51058
3.50746
3.50439
3.50278
3.50374
3.50684
3.51134
3.51463
3.51465
1.40001
1.40001
1.40001
1.40001
1.40001
1.40001
1.40001
1.40001
1.40001
1.40001
1.40001
1.40001
1.40001
1.40001
1.40001
1.40001
1.40001
1.40001
1.40001
1.40001
1.40001
1.40001
1.40001
1.40001
1.40001
1.40001
1.40001
1.40001
1.40001
1.40001
1.40001
1.40001
1.40001
1.40001
1.40001
1.40001
1.40001
1.40001
1.40001
1.40001
1.40001
1.40001
1.40001
1.40001
1.40001
1.40001
1.40001
1.40001
1.40001
1.40001
1.40001
1.40001
1.40001
1.40001
1.40001
1.4
1.4
1.4
1.40001
1.40083
1.42294
1.56627
2.02864
2.72295
3.27819
3.42533
3.46413
3.46282
3.46263
3.4785
3.49922
3.50406
3.50397
3.49991
3.48858
3.47959
3.48064
3.48956
3.5075
3.51706
1.40001
1.40001
1.40001
1.40001
1.40001
1.40001
1.40001
1.40001
1.40001
1.40001
1.40001
1.40001
1.40001
1.40001
1.40001
1.40001
1.40001
1.40001
1.40001
1.40001
1.40001
1.40001
1.40001
1.40001
1.40001
1.40001
1.40001
1.40001
1.40001
1.40001
1.40001
1.40001
1.40001
1.40001
1.40001
1.40001
1.40001
1.40001
1.40001
1.40001
1.40001
1.40001
1.40001
1.40001
1.40001
1.40001
1.40001
1.40001
1.40001
1.40001
1.40001
1.40001
1.40001
1.40001
1.40001
1.40001
1.40001
1.4
1.4
1.4
1.40013
1.40343
1.46582
1.73852
2.36595
3.00111
3.3805
3.5044
3.50241
3.50931
3.52004
3.52664
3.52536
3.51713
3.49585
3.47354
3.46871
3.47337
3.4842
3.50415
1.40001
1.40001
1.40001
1.40001
1.40001
1.40001
1.40001
1.40001
1.40001