/*--------------------------------*- C++ -*----------------------------------*\
| =========                 |                                                 |
| \\      /  F ield         | OpenFOAM: The Open Source CFD Toolbox           |
|  \\    /   O peration     | Version:  2206                                  |
|   \\  /    A nd           | Website:  www.openfoam.com                      |
|    \\/     M anipulation  |                                                 |
\*---------------------------------------------------------------------------*/
FoamFile
{
    version     2.0;
    format      ascii;
    arch        "LSB;label=32;scalar=64";
    class       volVectorField;
    location    "0.06";
    object      U;
}
// * * * * * * * * * * * * * * * * * * * * * * * * * * * * * * * * * * * * * //

dimensions      [0 1 -1 0 0 0 0];

internalField   nonuniform List<vector> 
4800
(
(5.90909 -4.33408e-16 0)
(5.90909 1.81698e-15 0)
(5.90909 9.08824e-15 0)
(5.90909 1.47192e-14 0)
(5.90909 -9.92171e-15 0)
(5.90909 -2.53144e-14 0)
(5.90909 1.06552e-14 0)
(5.90909 3.53761e-14 0)
(5.90909 4.48511e-14 0)
(5.90909 3.30757e-14 0)
(5.90909 1.5196e-14 0)
(5.90909 2.60678e-14 0)
(5.90909 5.70132e-14 0)
(5.90909 1.03775e-13 0)
(5.90909 1.09216e-13 0)
(5.90909 1.05065e-13 0)
(5.90909 8.05973e-14 0)
(5.90909 8.40212e-14 0)
(5.90909 9.13391e-14 0)
(5.90909 1.05718e-13 0)
(5.90909 1.11396e-13 0)
(5.90909 -9.4583e-15 0)
(5.90909 -4.26574e-14 0)
(5.90909 -4.83417e-15 0)
(5.90909 6.28742e-14 0)
(5.90909 9.52731e-14 0)
(5.90909 1.10149e-13 0)
(5.90909 9.00489e-14 0)
(5.90909 7.44629e-14 0)
(5.90909 7.3086e-14 0)
(5.90909 9.01289e-14 0)
(5.90909 7.11423e-14 0)
(5.90909 4.07904e-14 0)
(5.90909 1.65729e-14 0)
(5.90909 8.16808e-16 0)
(5.90909 2.00368e-15 0)
(5.90909 6.36443e-14 0)
(5.90909 1.30082e-13 0)
(5.90909 1.31936e-13 0)
(5.90909 1.24805e-13 0)
(5.90909 -1.7103e-15 0)
(5.90909 2.72047e-15 0)
(5.90909 6.06105e-15 0)
(5.90909 -2.18104e-14 0)
(5.90909 -5.41694e-14 0)
(5.90909 -3.24656e-14 0)
(5.90909 -5.51762e-15 0)
(5.90909 -1.1342e-14 0)
(5.90909 -1.42858e-14 0)
(5.90909 -9.67834e-15 0)
(5.90909 -1.29189e-14 0)
(5.90909 -1.47425e-14 0)
(5.90909 -4.19406e-15 0)
(5.90909 -1.74363e-15 0)
(5.90909 6.49212e-14 0)
(5.90909 7.95204e-14 0)
(5.90909 1.03204e-13 0)
(5.90909 1.52503e-13 0)
(5.90909 1.67306e-13 0)
(5.90909 1.02311e-13 0)
(5.90909 3.0922e-14 0)
(5.90909 -1.50993e-14 0)
(5.90909 -4.2554e-14 0)
(5.90909 1.53193e-14 0)
(5.90909 1.24218e-13 0)
(5.90909 1.66865e-13 0)
(5.90909 1.80144e-13 0)
(5.90909 6.86685e-14 0)
(5.90909 2.14204e-14 0)
(5.90909 3.48393e-14 0)
(5.90909 9.19459e-14 0)
(5.90909 9.90738e-14 0)
(5.90909 -6.88119e-15 0)
(5.90909 -6.61148e-14 0)
(5.90909 -1.14493e-13 0)
(5.90909 -1.13736e-13 0)
(5.90909 -8.59148e-15 0)
(5.90909 9.36895e-14 0)
(5.90909 9.11824e-14 0)
(5.90909 1.01305e-13 0)
(5.90909 7.66799e-17 0)
(5.90909 -3.2539e-15 0)
(5.90909 4.46744e-16 0)
(5.90909 -1.98701e-14 0)
(5.90909 -2.17238e-14 0)
(5.90909 -1.60628e-14 0)
(5.90909 -1.09086e-14 0)
(5.90909 -7.31126e-15 0)
(5.90909 -5.88435e-15 0)
(5.90909 1.00351e-14 0)
(5.90909 2.81149e-14 0)
(5.90909 2.05535e-14 0)
(5.90909 2.49776e-14 0)
(5.90909 -6.2044e-15 0)
(5.90909 -3.878e-14 0)
(5.90909 2.60845e-14 0)
(5.90909 8.23642e-14 0)
(5.90909 1.18577e-13 0)
(5.90909 3.72264e-14 0)
(5.90909 -6.02204e-14 0)
(5.90909 -8.39612e-14 0)
(5.90909 -1.41091e-14 0)
(5.90909 -1.21121e-14 0)
(5.90909 -5.95303e-14 0)
(5.90909 -2.67946e-14 0)
(5.90909 1.94304e-13 0)
(5.90909 2.40648e-13 0)
(5.90909 2.80422e-13 0)
(5.90909 1.50659e-13 0)
(5.90909 7.70133e-16 0)
(5.90909 -1.08719e-14 0)
(5.90909 -6.32476e-14 0)
(5.90909 -1.47435e-13 0)
(5.90909 -1.50823e-13 0)
(5.90909 -1.38067e-13 0)
(5.90909 -8.37278e-14 0)
(5.90909 -5.9797e-14 0)
(5.90909 -5.63297e-14 0)
(5.90909 -6.51179e-14 0)
(5.90909 -1.94536e-14 0)
(5.90909 1.70029e-16 0)
(5.90909 -4.61413e-15 0)
(5.90909 3.56728e-16 0)
(5.90909 1.12353e-15 0)
(5.90909 1.34157e-14 0)
(5.90909 1.83032e-14 0)
(5.90909 3.09287e-14 0)
(5.90909 3.49294e-14 0)
(5.90909 3.38625e-14 0)
(5.90909 4.92352e-14 0)
(5.90909 5.13355e-14 0)
(5.90909 7.45995e-14 0)
(5.90909 1.27045e-13 0)
(5.90909 1.38587e-13 0)
(5.90909 7.89536e-14 0)
(5.90909 -2.39141e-14 0)
(5.90909 -6.5458e-14 0)
(5.90909 -1.22841e-13 0)
(5.90909 -1.46919e-13 0)
(5.90909 -8.59782e-14 0)
(5.90909 -3.89901e-14 0)
(5.90909 -2.98718e-14 0)
(5.90909 -1.14413e-13 0)
(5.90909 -1.67416e-13 0)
(5.90909 -1.45598e-13 0)
(5.90909 -8.34777e-14 0)
(5.90909 8.42579e-14 0)
(5.90909 1.28009e-13 0)
(5.90909 1.22981e-13 0)
(5.90909 9.97372e-14 0)
(5.90909 -2.00135e-14 0)
(5.90909 -9.01789e-14 0)
(5.90909 -6.79251e-14 0)
(5.90909 -3.75465e-14 0)
(5.90909 2.65979e-14 0)
(5.90909 3.98369e-14 0)
(5.90909 1.02451e-14 0)
(5.90909 -1.36337e-13 0)
(5.90909 -1.3323e-13 0)
(5.90909 -1.06168e-13 0)
(5.90909 7.25125e-15 0)
(5.90909 2.3184e-14 0)
(5.90909 1.46059e-14 0)
(5.90909 3.6473e-15 0)
(5.90909 -6.06771e-15 0)
(5.90909 -3.52061e-15 0)
(5.90909 2.08636e-14 0)
(5.90909 1.35257e-14 0)
(5.90909 2.12337e-14 0)
(5.90909 1.38757e-14 0)
(5.90909 6.72449e-15 0)
(5.90909 2.99852e-14 0)
(5.90909 3.6513e-14 0)
(5.90909 1.14887e-14 0)
(5.90909 -3.10687e-14 0)
(5.90909 -8.89287e-14 0)
(5.90909 -1.63422e-13 0)
(5.90909 -1.59044e-13 0)
(5.90909 -1.41925e-13 0)
(5.90909 -8.76218e-14 0)
(5.90909 -7.66399e-14 0)
(5.90909 1.74697e-14 0)
(5.90909 6.64148e-14 0)
(5.90909 6.3831e-14 0)
(5.90909 1.40624e-14 0)
(5.90909 -1.25688e-15 0)
(5.90909 -3.2939e-15 0)
(5.90909 -9.98006e-14 0)
(5.90909 -1.26519e-13 0)
(5.90909 -1.21108e-13 0)
(5.90909 -1.38477e-13 0)
(5.90909 -9.647e-14 0)
(5.90909 1.01017e-14 0)
(5.90909 3.14188e-14 0)
(5.90909 2.50043e-14 0)
(5.90909 1.91366e-14 0)
(5.90909 1.10019e-15 0)
(5.90909 -7.14423e-14 0)
(5.90909 -1.05832e-13 0)
(5.90909 -1.05349e-13 0)
(5.90909 1.48892e-14 0)
(5.90909 4.27741e-15 0)
(5.90909 -9.675e-15 0)
(5.90909 7.25125e-15 0)
(5.90909 7.38461e-15 0)
(5.90909 -2.73047e-15 0)
(5.90909 -8.61149e-15 0)
(5.90909 1.7323e-14 0)
(5.90909 2.19371e-15 0)
(5.90909 4.05403e-15 0)
(5.90909 2.29873e-14 0)
(5.90909 2.19971e-14 0)
(5.90909 -1.19421e-14 0)
(5.90909 -6.38277e-14 0)
(5.90909 -1.40654e-13 0)
(5.90909 -8.62316e-14 0)
(5.90909 -1.71563e-14 0)
(5.90909 2.06702e-16 0)
(5.90909 -1.59027e-15 0)
(5.90909 -4.41343e-14 0)
(5.90909 -1.15837e-13 0)
(5.90909 -7.08289e-14 0)
(5.90909 3.64863e-14 0)
(5.90909 4.87051e-14 0)
(5.90909 6.56313e-14 0)
(5.90909 6.2034e-14 0)
(5.90909 -7.60565e-14 0)
(5.90909 -1.53577e-13 0)
(5.90909 -1.69166e-13 0)
(5.90909 -2.13384e-13 0)
(5.90909 -2.08489e-13 0)
(5.90909 -1.89586e-13 0)
(5.90909 -1.01608e-13 0)
(5.90909 -7.74767e-14 0)
(5.90909 1.06118e-14 0)
(5.90909 6.70516e-14 0)
(5.90909 7.63899e-14 0)
(5.90909 1.09019e-15 0)
(5.90909 -2.09169e-13 0)
(5.90909 -2.17778e-13 0)
(5.90909 -3.10054e-16 0)
(5.90909 -5.91102e-15 0)
(5.90909 1.10119e-14 0)
(5.90909 2.56244e-14 0)
(5.90909 2.52244e-14 0)
(5.90909 1.96934e-14 0)
(5.90909 5.11422e-15 0)
(5.90909 1.75464e-14 0)
(5.90909 -7.81502e-14 0)
(5.90909 -8.75685e-14 0)
(5.90909 -6.87085e-14 0)
(5.90909 -1.05525e-13 0)
(5.90909 -1.19491e-13 0)
(5.90909 -1.13263e-13 0)
(5.90909 -9.46563e-14 0)
(5.90909 -1.48159e-14 0)
(5.90909 8.63482e-15 0)
(5.90909 3.05686e-14 0)
(5.90909 -1.86065e-14 0)
(5.90909 -6.10272e-14 0)
(5.90909 -3.98769e-14 0)
(5.90909 -1.37324e-14 0)
(5.90909 -1.38197e-13 0)
(5.90909 -1.99071e-13 0)
(5.90909 -2.01108e-13 0)
(5.90909 -2.02895e-13 0)
(5.90909 -8.51614e-14 0)
(5.90909 1.25088e-14 0)
(5.90909 3.62929e-14 0)
(5.90909 3.56228e-14 0)
(5.90909 3.09987e-14 0)
(5.90909 -4.25073e-14 0)
(5.90909 -6.55813e-14 0)
(5.90909 -6.22641e-14 0)
(5.90909 -6.43278e-14 0)
(5.90909 -6.67582e-14 0)
(5.90909 -6.21441e-14 0)
(5.90909 -9.97339e-14 0)
(5.90909 -1.99838e-13 0)
(5.90909 -2.838e-13 0)
(5.90909 -1.44092e-14 0)
(5.90909 -4.39076e-15 0)
(5.90909 4.4251e-14 0)
(5.90909 5.40293e-14 0)
(5.90909 4.12071e-14 0)
(5.90909 -1.73597e-14 0)
(5.90909 -4.84284e-14 0)
(5.90909 -6.48779e-14 0)
(5.90909 -7.40194e-14 0)
(5.90909 -1.1391e-13 0)
(5.90909 -2.10833e-13 0)
(5.90909 -2.46163e-13 0)
(5.90909 -2.63629e-13 0)
(5.90909 -2.12227e-13 0)
(5.90909 -1.3628e-13 0)
(5.90909 -1.04285e-13 0)
(5.90909 -7.5153e-14 0)
(5.90909 -8.46146e-14 0)
(5.90909 -9.2526e-14 0)
(5.90909 -8.92154e-14 0)
(5.90909 -4.42843e-14 0)
(5.90909 -3.37258e-14 0)
(5.90909 -2.50477e-14 0)
(5.90909 -2.62312e-14 0)
(5.90909 -3.40726e-14 0)
(5.90909 -2.03635e-14 0)
(5.90909 6.71449e-15 0)
(5.90909 6.3841e-14 0)
(5.90909 7.46262e-14 0)
(5.90909 1.03985e-14 0)
(5.90909 -2.94151e-14 0)
(5.90909 -1.59528e-14 0)
(5.90909 1.65995e-14 0)
(5.90909 -4.85217e-14 0)
(5.90909 -2.44379e-13 0)
(5.90909 -2.77741e-13 0)
(5.90909 -2.56094e-13 0)
(5.90909 -2.521e-13 0)
(5.90909 -1.33503e-13 0)
(5.90909 -8.65158e-14 0)
(5.90909 -9.66167e-15 0)
(5.90909 -9.89504e-15 0)
(5.90909 -1.3649e-14 0)
(5.90909 -1.47625e-14 0)
(5.90909 6.89452e-15 0)
(5.90909 3.01219e-14 0)
(5.90909 1.5296e-14 0)
(5.90909 -2.13037e-15 0)
(5.90909 1.72963e-14 0)
(5.90909 1.99701e-15 0)
(5.90909 -4.47477e-14 0)
(5.90909 -4.13971e-14 0)
(5.90909 -4.16272e-14 0)
(5.90909 -1.3489e-13 0)
(5.90909 -1.5426e-13 0)
(5.90909 -9.62166e-14 0)
(5.90909 -5.0242e-14 0)
(5.90909 -8.80552e-14 0)
(5.90909 -1.3526e-13 0)
(5.90909 -1.46102e-13 0)
(5.90909 -1.35207e-13 0)
(5.90909 -1.5593e-13 0)
(5.90909 -6.29242e-14 0)
(5.90909 2.89417e-14 0)
(5.90909 2.95518e-14 0)
(5.90909 1.01217e-14 0)
(5.90909 -5.69665e-14 0)
(5.90909 -5.50262e-14 0)
(5.90909 -5.17956e-14 0)
(5.90909 1.16487e-14 0)
(5.90909 5.64864e-14 0)
(5.90909 8.05906e-14 0)
(5.90909 6.22541e-14 0)
(5.90909 -8.97488e-15 0)
(5.90909 -1.39958e-13 0)
(5.90909 -1.86482e-13 0)
(5.90909 -1.80865e-13 0)
(5.90909 -1.87709e-13 0)
(5.90909 -1.15107e-13 0)
(5.90909 6.92036e-14 0)
(5.90909 5.9777e-15 0)
(5.90909 -4.20406e-15 0)
(5.90909 -6.71116e-14 0)
(5.90909 -1.02684e-13 0)
(5.90909 -9.40896e-14 0)
(5.90909 -2.54944e-14 0)
(5.90909 7.58131e-15 0)
(5.90909 -3.70297e-14 0)
(5.90909 -3.49927e-14 0)
(5.90909 -1.91033e-15 0)
(5.90909 6.00437e-14 0)
(5.90909 9.54832e-14 0)
(5.90909 1.54727e-14 0)
(5.90909 -4.27741e-15 0)
(5.90909 2.53044e-15 0)
(5.90909 -2.53777e-14 0)
(5.90909 -5.41527e-14 0)
(5.90909 -5.18123e-14 0)
(5.90909 -7.53163e-14 0)
(5.90909 -1.01174e-13 0)
(5.90909 -1.1713e-13 0)
(5.90909 -1.06148e-13 0)
(5.90909 -5.06087e-14 0)
(5.90909 9.60833e-15 0)
(5.90909 1.26855e-14 0)
(5.90909 -5.00853e-14 0)
(5.90909 -9.23826e-14 0)
(5.90909 -1.1673e-13 0)
(5.90909 -1.11133e-13 0)
(5.90909 3.12654e-14 0)
(5.90909 6.87152e-14 0)
(5.90909 6.26742e-14 0)
(5.90909 6.82118e-14 0)
(5.90909 8.08673e-14 0)
(5.90909 1.87632e-14 0)
(5.90909 -1.95434e-14 0)
(5.90909 -2.93917e-14 0)
(5.90909 1.18587e-14 0)
(5.90909 1.03285e-14 0)
(5.90909 1.95883e-14 0)
(5.90909 -9.80169e-16 0)
(5.90909 -5.89102e-15 0)
(5.90909 -2.00701e-14 0)
(5.90909 -3.16788e-14 0)
(5.90909 -4.40109e-14 0)
(5.90909 -4.40276e-14 0)
(5.90909 -4.54045e-14 0)
(5.90909 -4.93419e-14 0)
(5.90909 -7.17057e-14 0)
(5.90909 -5.10455e-14 0)
(5.90909 6.1944e-15 0)
(5.90909 2.7208e-14 0)
(5.90909 1.83365e-14 0)
(5.90909 2.06336e-14 0)
(5.90909 4.0727e-14 0)
(5.90909 1.78031e-14 0)
(5.90909 -1.62195e-14 0)
(5.90909 -9.60833e-15 0)
(5.90909 -2.2874e-14 0)
(5.90909 -1.90033e-14 0)
(5.90909 -1.59127e-14 0)
(5.90909 1.93467e-14 0)
(5.90909 4.64113e-14 0)
(5.90909 4.18006e-14 0)
(5.90909 3.79999e-14 0)
(5.90909 8.74851e-14 0)
(5.90909 1.934e-14 0)
(5.90909 -8.12474e-15 0)
(5.90909 -5.1839e-14 0)
(5.90909 -5.5703e-14 0)
(5.90909 -4.50578e-14 0)
(5.90909 -1.38691e-15 0)
(5.90909 1.74063e-14 0)
(5.90909 -3.01885e-14 0)
(5.90909 -7.66399e-14 0)
(5.90909 -7.23358e-14 0)
(5.90909 -4.89685e-14 0)
(5.90909 -7.44295e-14 0)
(5.90909 -9.49164e-14 0)
(5.90909 -1.64398e-13 0)
(5.90909 2.95051e-15 0)
(5.90909 1.27255e-14 0)
(5.90909 1.97567e-14 0)
(5.90909 7.06555e-14 0)
(5.90909 6.45845e-14 0)
(5.90909 3.2929e-14 0)
(5.90909 -4.44743e-15 0)
(5.90909 3.76732e-16 0)
(5.90909 -1.01317e-14 0)
(5.90909 -7.59131e-15 0)
(5.90909 9.90171e-16 0)
(5.90909 -5.69398e-14 0)
(5.90909 -6.7275e-14 0)
(5.90909 -4.38376e-14 0)
(5.90909 -1.29256e-14 0)
(5.90909 7.5553e-14 0)
(5.90909 9.56398e-14 0)
(5.90909 1.06655e-13 0)
(5.90909 1.08359e-13 0)
(5.90909 1.26805e-13 0)
(5.90909 1.51563e-13 0)
(5.90909 1.02541e-13 0)
(5.90909 4.39076e-14 0)
(5.90909 2.79815e-14 0)
(5.90909 5.67765e-15 0)
(5.90909 1.72563e-14 0)
(5.90909 1.5676e-14 0)
(5.90909 -4.55912e-14 0)
(5.90909 -4.85751e-14 0)
(5.90909 -9.94038e-14 0)
(5.90909 -1.33226e-13 0)
(5.90909 -1.20081e-13 0)
(5.90909 -1.24341e-13 0)
(5.90909 -1.41248e-13 0)
(5.90909 -1.43228e-13 0)
(5.90909 -8.70884e-14 0)
(5.90909 -5.16556e-14 0)
(5.90909 -5.01853e-14 0)
(5.90909 -1.05888e-13 0)
(5.90909 -1.37095e-13 0)
(5.90909 -3.32724e-15 0)
(5.90909 -2.63045e-15 0)
(5.90909 2.60545e-14 0)
(5.90909 3.67297e-14 0)
(5.90909 3.40225e-14 0)
(5.90909 -1.1702e-14 0)
(5.90909 -1.79931e-14 0)
(5.90909 -5.76766e-15 0)
(5.90909 4.28841e-14 0)
(5.90909 3.75798e-14 0)
(5.90909 -1.65895e-14 0)
(5.90909 -6.48612e-14 0)
(5.90909 -3.42292e-14 0)
(5.90909 6.02104e-15 0)
(5.90909 1.28422e-14 0)
(5.90909 6.08238e-14 0)
(5.90909 7.08689e-14 0)
(5.90909 8.43712e-14 0)
(5.90909 1.01414e-13 0)
(5.90909 7.87269e-14 0)
(5.90909 4.28441e-14 0)
(5.90909 3.57395e-15 0)
(5.90909 -5.24124e-14 0)
(5.90909 -5.00786e-14 0)
(5.90909 -3.16988e-14 0)
(5.90909 -5.2319e-14 0)
(5.90909 -6.16706e-14 0)
(5.90909 -8.06106e-14 0)
(5.90909 -7.69333e-14 0)
(5.90909 -8.04506e-14 0)
(5.90909 -8.4648e-14 0)
(5.90909 -1.04935e-13 0)
(5.90909 -9.45897e-14 0)
(5.90909 -5.23524e-14 0)
(5.90909 2.05335e-14 0)
(5.90909 3.75632e-14 0)
(5.90909 2.28273e-14 0)
(5.90909 3.35658e-14 0)
(5.90909 2.07402e-14 0)
(5.90909 -5.71541e-14 0)
(5.90909 -6.59447e-15 0)
(5.90909 -8.82819e-15 0)
(5.90909 1.5676e-14 0)
(5.90909 3.99069e-14 0)
(5.90909 4.04937e-14 0)
(5.90909 5.16923e-14 0)
(5.90909 6.41444e-14 0)
(5.90909 7.01488e-14 0)
(5.90909 5.96903e-14 0)
(5.90909 6.7375e-14 0)
(5.90909 6.33043e-14 0)
(5.90909 1.05918e-13 0)
(5.90909 1.26469e-13 0)
(5.90909 1.12056e-13 0)
(5.90909 9.58899e-14 0)
(5.90909 5.51429e-15 0)
(5.90909 3.92068e-15 0)
(5.90909 2.91117e-14 0)
(5.90909 3.50027e-14 0)
(5.90909 -1.27889e-14 0)
(5.90909 -1.72897e-14 0)
(5.90909 -6.05104e-15 0)
(5.90909 -1.3415e-13 0)
(5.90909 -1.76684e-13 0)
(5.90909 -1.45955e-13 0)
(5.90909 -8.73851e-14 0)
(5.90909 -5.778e-14 0)
(5.90909 -8.63082e-14 0)
(5.90909 -9.95505e-14 0)
(5.90909 -7.68766e-14 0)
(5.90909 -6.12539e-14 0)
(5.90909 -1.07542e-13 0)
(5.90909 -1.24041e-13 0)
(5.90909 -1.06425e-13 0)
(5.90909 -3.62629e-14 0)
(5.90909 5.70865e-14 0)
(5.90909 6.72083e-14 0)
(5.90909 5.88535e-14 0)
(5.90909 2.3324e-14 0)
(5.90909 3.80915e-14 0)
(5.90909 1.31023e-15 0)
(5.90909 3.34391e-15 0)
(5.90909 3.38392e-15 0)
(5.90909 3.54228e-14 0)
(5.90909 5.29425e-14 0)
(5.90909 9.99906e-14 0)
(5.90909 1.10729e-13 0)
(5.90909 8.64249e-14 0)
(5.90909 4.70515e-14 0)
(5.90909 2.03135e-14 0)
(5.90909 8.85486e-15 0)
(5.90909 4.18839e-14 0)
(5.90909 4.65514e-14 0)
(5.90909 5.59363e-14 0)
(5.90909 7.25259e-14 0)
(5.90909 7.26625e-14 0)
(5.90909 7.5323e-14 0)
(5.90909 9.80236e-14 0)
(5.90909 1.06382e-13 0)
(5.90909 1.21481e-13 0)
(5.90909 1.1622e-13 0)
(5.90909 8.50914e-14 0)
(5.90909 4.50411e-15 0)
(5.90909 -1.16914e-13 0)
(5.90909 -1.1299e-13 0)
(5.90909 -2.00168e-14 0)
(5.90909 5.25757e-14 0)
(5.90909 7.38294e-14 0)
(5.90909 5.64564e-14 0)
(5.90909 1.919e-14 0)
(5.90909 1.09419e-14 0)
(5.90909 1.03585e-14 0)
(5.90909 6.98454e-15 0)
(5.90909 2.99252e-14 0)
(5.90909 4.15505e-14 0)
(5.90909 3.37258e-14 0)
(5.90909 4.00736e-14 0)
(5.90909 2.36608e-14 0)
(5.90909 -2.22905e-14 0)
(5.90909 -4.38726e-14 0)
(5.90909 -5.16756e-16 0)
(5.90909 7.37794e-15 0)
(5.90909 2.80048e-16 0)
(5.90909 -2.37008e-14 0)
(5.90909 -1.7143e-14 0)
(5.90909 -4.71081e-15 0)
(5.90909 7.53463e-15 0)
(5.90909 3.44393e-14 0)
(5.90909 4.87151e-14 0)
(5.90909 1.95934e-14 0)
(5.90909 1.5296e-14 0)
(5.90909 -1.28922e-14 0)
(5.90909 -3.869e-14 0)
(5.90909 -3.68964e-14 0)
(5.90909 8.96822e-15 0)
(5.90909 7.64232e-14 0)
(5.90909 1.02011e-13 0)
(5.90909 1.01037e-13 0)
(5.90909 8.42779e-14 0)
(5.90909 8.66983e-14 0)
(5.90909 6.74283e-14 0)
(5.90909 1.84665e-14 0)
(5.90909 3.98235e-14 0)
(5.90909 8.61916e-14 0)
(5.90909 7.9167e-14 0)
(5.90909 2.64579e-14 0)
(5.90909 8.06806e-15 0)
(5.90909 1.45735e-13 0)
(5.90909 1.80851e-13 0)
(5.90909 1.3667e-13 0)
(5.90909 2.09603e-14 0)
(5.90909 1.3627e-13 0)
(5.90909 3.42979e-13 0)
(5.90909 3.55021e-13 0)
(5.90909 2.61158e-13 0)
(5.90909 2.84549e-14 0)
(5.90909 -6.04638e-14 0)
(5.90909 -5.64064e-14 0)
(5.90909 4.54879e-14 0)
(5.90909 -5.79176e-15 0)
(5.90909 -3.54061e-15 0)
(5.90909 -2.39008e-14 0)
(5.90909 -2.21938e-14 0)
(5.90909 -3.24689e-14 0)
(5.90909 -8.50147e-14 0)
(5.90909 -1.17847e-13 0)
(5.90909 -1.24508e-13 0)
(5.90909 -9.58365e-14 0)
(5.90909 -3.4876e-14 0)
(5.90909 -2.57778e-14 0)
(5.90909 -3.838e-14 0)
(5.90909 -6.51479e-14 0)
(5.90909 -9.23559e-14 0)
(5.90909 -8.26643e-14 0)
(5.90909 -5.82267e-14 0)
(5.90909 -5.29158e-14 0)
(5.90909 -2.46843e-14 0)
(5.90909 1.95134e-14 0)
(5.90909 1.37824e-14 0)
(5.90909 -5.50462e-14 0)
(5.90909 -7.06422e-14 0)
(5.90909 -8.02939e-14 0)
(5.90909 3.05053e-14 0)
(5.90909 1.1447e-13 0)
(5.90909 7.73534e-14 0)
(5.90909 -2.81115e-14 0)
(5.90909 -5.6023e-14 0)
(5.90909 -8.98622e-14 0)
(5.90909 -8.14107e-14 0)
(5.90909 7.58431e-14 0)
(5.90909 9.0939e-14 0)
(5.90909 9.42229e-14 0)
(5.90909 5.5723e-14 0)
(5.90909 4.55312e-14 0)
(5.90909 4.73115e-14 0)
(5.90909 -1.25855e-14 0)
(5.90909 -1.16603e-13 0)
(5.90909 -3.56762e-14 0)
(5.90909 1.1675e-13 0)
(5.90909 1.34609e-13 0)
(5.90909 1.5436e-15 0)
(5.90909 -2.32707e-15 0)
(5.90909 1.3569e-14 0)
(5.90909 1.83332e-14 0)
(5.90909 2.38708e-14 0)
(5.90909 6.10005e-14 0)
(5.90909 6.38444e-14 0)
(5.90909 3.93735e-14 0)
(5.90909 -9.86504e-15 0)
(5.90909 -4.17672e-14 0)
(5.90909 -4.18572e-14 0)
(5.90909 -3.47427e-14 0)
(5.90909 -2.56244e-14 0)
(5.90909 -1.51493e-14 0)
(5.90909 -2.68946e-14 0)
(5.90909 -3.35091e-14 0)
(5.90909 -6.44011e-14 0)
(5.90909 -9.10791e-14 0)
(5.90909 -5.60397e-14 0)
(5.90909 -6.13473e-14 0)
(5.90909 -5.0142e-14 0)
(5.90909 -4.4421e-14 0)
(5.90909 -3.42926e-14 0)
(5.90909 -3.94668e-14 0)
(5.90909 -6.45245e-14 0)
(5.90909 -1.1656e-13 0)
(5.90909 -1.46665e-13 0)
(5.90909 -8.76118e-14 0)
(5.90909 -2.5371e-14 0)
(5.90909 2.49243e-14 0)
(5.90909 -3.01585e-14 0)
(5.90909 -1.43308e-13 0)
(5.90909 -1.34677e-13 0)
(5.90909 -9.52965e-14 0)
(5.90909 -6.88652e-14 0)
(5.90909 -8.23142e-15 0)
(5.90909 5.73432e-14 0)
(5.90909 8.05806e-14 0)
(5.90909 1.19421e-13 0)
(5.90909 1.47866e-13 0)
(5.90909 -7.66799e-17 0)
(5.90909 7.42462e-15 0)
(5.90909 -7.56464e-15 0)
(5.90909 1.1332e-14 0)
(5.90909 2.85149e-14 0)
(5.90909 3.4676e-14 0)
(5.90909 5.99103e-14 0)
(5.90909 4.80483e-14 0)
(5.90909 2.02702e-14 0)
(5.90909 2.61045e-15 0)
(5.90909 3.39292e-14 0)
(5.90909 8.41179e-14 0)
(5.90909 7.04922e-14 0)
(5.90909 5.51062e-14 0)
(5.90909 3.13921e-14 0)
(5.90909 -6.23974e-14 0)
(5.90909 -1.22414e-13 0)
(5.90909 -1.62065e-13 0)
(5.90909 -1.64785e-13 0)
(5.90909 -1.06032e-13 0)
(5.90909 -9.70901e-14 0)
(5.90909 -8.80919e-14 0)
(5.90909 -5.85368e-14 0)
(5.90909 -3.41992e-14 0)
(5.90909 -8.88987e-14 0)
(5.90909 -1.60748e-13 0)
(5.90909 -1.61665e-13 0)
(5.90909 -9.34661e-14 0)
(5.90909 3.31857e-14 0)
(5.90909 7.28926e-14 0)
(5.90909 3.866e-14 0)
(5.90909 -1.40824e-14 0)
(5.90909 -2.99518e-14 0)
(5.90909 -2.66713e-14 0)
(5.90909 6.79951e-14 0)
(5.90909 1.28556e-13 0)
(5.90909 1.50466e-13 0)
(5.90909 1.36447e-13 0)
(5.90909 1.61855e-13 0)
(5.90909 1.83425e-13 0)
(5.90909 -2.57711e-15 0)
(5.90909 1.60194e-14 0)
(5.90909 1.31523e-14 0)
(5.90909 -8.21809e-15 0)
(5.90909 -4.52178e-14 0)
(5.90909 -8.6985e-14 0)
(5.90909 -1.01848e-13 0)
(5.90909 -1.1434e-13 0)
(5.90909 -7.80601e-14 0)
(5.90909 -2.78181e-14 0)
(5.90909 -2.55144e-14 0)
(5.90909 -2.42475e-14 0)
(5.90909 -2.41708e-14 0)
(5.90909 -3.16321e-14 0)
(5.90909 -1.83965e-14 0)
(5.90909 6.94787e-15 0)
(5.90909 -4.94719e-14 0)
(5.90909 -8.62682e-14 0)
(5.90909 -5.54496e-14 0)
(5.90909 -1.59027e-15 0)
(5.90909 1.42358e-15 0)
(5.90909 1.04685e-14 0)
(5.90909 3.52461e-14 0)
(5.90909 1.3589e-14 0)
(5.90909 -1.11353e-15 0)
(5.90909 -2.78348e-14 0)
(5.90909 -2.30707e-14 0)
(5.90909 -2.48943e-14 0)
(5.90909 -3.84466e-14 0)
(5.90909 -3.18022e-14 0)
(5.90909 -2.14637e-14 0)
(5.90909 4.6438e-14 0)
(5.90909 5.51729e-14 0)
(5.90909 6.18774e-14 0)
(5.90909 1.04595e-13 0)
(5.90909 8.62249e-14 0)
(5.90909 1.15507e-13 0)
(5.90909 1.24045e-13 0)
(5.90909 1.02604e-13 0)
(5.90909 5.76801e-14 0)
(5.90909 7.36127e-15 0)
(5.90909 4.00236e-14 0)
(5.90909 3.23723e-14 0)
(5.90909 -2.48043e-15 0)
(5.90909 -1.75697e-15 0)
(5.90909 1.61961e-14 0)
(5.90909 1.42591e-14 0)
(5.90909 5.16089e-15 0)
(5.90909 6.33443e-16 0)
(5.90909 1.73163e-14 0)
(5.90909 1.04118e-14 0)
(5.90909 5.57096e-15 0)
(5.90909 -1.76164e-14 0)
(5.90909 -7.00354e-14 0)
(5.90909 -7.10923e-14 0)
(5.90909 -1.44758e-14 0)
(5.90909 -1.923e-14 0)
(5.90909 -4.79049e-14 0)
(5.90909 -1.58261e-14 0)
(5.90909 4.2724e-14 0)
(5.90909 1.05492e-13 0)
(5.90909 1.15247e-13 0)
(5.90909 1.3239e-13 0)
(5.90909 9.39662e-14 0)
(5.90909 1.18454e-14 0)
(5.90909 -3.13387e-16 0)
(5.90909 3.78399e-15 0)
(5.90909 -1.07619e-14 0)
(5.90909 -6.1914e-14 0)
(5.90909 -4.40243e-14 0)
(5.90909 -3.46893e-14 0)
(5.90909 1.66695e-17 0)
(5.90909 9.49797e-14 0)
(5.90909 1.28192e-13 0)
(5.90909 1.30016e-13 0)
(5.90909 1.29702e-13 0)
(5.90909 7.02421e-14 0)
(5.90909 1.27355e-14 0)
(5.90909 2.45576e-14 0)
(5.90909 2.49447e-14 0)
(5.90909 -3.85066e-15 0)
(5.90909 -3.23323e-14 0)
(5.90909 -4.67414e-14 0)
(5.90909 -3.2879e-14 0)
(5.90909 3.33091e-14 0)
(5.90909 6.3651e-14 0)
(5.90909 5.81367e-14 0)
(5.90909 6.52379e-14 0)
(5.90909 1.21221e-14 0)
(5.90909 -2.03635e-14 0)
(5.90909 -1.49326e-14 0)
(5.90909 -3.69397e-15 0)
(5.90909 2.24705e-15 0)
(5.90909 -8.10473e-15 0)
(5.90909 -6.27975e-14 0)
(5.90909 -9.46063e-14 0)
(5.90909 -3.52794e-14 0)
(5.90909 1.31189e-14 0)
(5.90909 -2.62712e-15 0)
(5.90909 1.76664e-14 0)
(5.90909 4.73882e-14 0)
(5.90909 4.11104e-14 0)
(5.90909 4.12671e-14 0)
(5.90909 4.37442e-14 0)
(5.90909 2.30306e-14 0)
(5.90909 5.68098e-15 0)
(5.90909 3.02986e-14 0)
(5.90909 6.83985e-14 0)
(5.90909 6.01104e-14 0)
(5.90909 1.58961e-14 0)
(5.90909 3.97135e-14 0)
(5.90909 6.16907e-14 0)
(5.90909 8.49313e-14 0)
(5.90909 7.91603e-14 0)
(5.90909 3.92835e-14 0)
(5.90909 1.11386e-14 0)
(5.90909 -3.42026e-14 0)
(5.90909 8.99489e-15 0)
(5.90909 5.41093e-14 0)
(5.90909 1.44061e-13 0)
(5.90909 9.70168e-16 0)
(5.90909 -2.16637e-14 0)
(5.90909 -2.25239e-14 0)
(5.90909 -9.70168e-16 0)
(5.90909 4.64414e-15 0)
(5.90909 -2.95251e-14 0)
(5.90909 -4.37809e-14 0)
(5.90909 -2.86316e-14 0)
(5.90909 -1.27689e-14 0)
(5.90909 -2.93384e-15 0)
(5.90909 -2.1337e-16 0)
(5.90909 -1.21188e-14 0)
(5.90909 -1.64062e-14 0)
(5.90909 3.26223e-14 0)
(5.90909 5.45461e-14 0)
(5.90909 5.08421e-14 0)
(5.90909 5.64331e-14 0)
(5.90909 6.53913e-14 0)
(5.90909 2.18104e-14 0)
(5.90909 1.59361e-15 0)
(5.90909 2.1197e-14 0)
(5.90909 3.67263e-14 0)
(5.90909 2.4971e-15 0)
(5.90909 -2.77948e-14 0)
(5.90909 6.10772e-15 0)
(5.90909 8.16808e-15 0)
(5.90909 -5.71432e-15 0)
(5.90909 -1.42958e-14 0)
(5.90909 -6.24108e-15 0)
(5.90909 -9.70168e-16 0)
(5.90909 2.27006e-14 0)
(5.90909 4.48311e-14 0)
(5.90909 7.96204e-14 0)
(5.90909 -1.98068e-14 0)
(5.90909 -7.55997e-14 0)
(5.90909 -1.06495e-13 0)
(5.90909 -9.34461e-14 0)
(5.90909 -5.10755e-15 0)
(5.90909 8.12807e-15 0)
(5.90909 3.58776e-14 0)
(5.90909 -2.65046e-15 0)
(5.90909 -9.78836e-15 0)
(5.90909 -2.20938e-14 0)
(5.90909 -3.14088e-14 0)
(5.90909 -7.00488e-14 0)
(5.90909 -8.88087e-14 0)
(5.90909 -9.94038e-14 0)
(5.90909 -5.27491e-14 0)
(5.90909 -1.80064e-14 0)
(5.90909 4.85417e-15 0)
(5.90909 -3.21989e-14 0)
(5.90909 -5.39927e-14 0)
(5.90909 -7.96471e-15 0)
(5.90909 8.13474e-14 0)
(5.90909 1.03965e-13 0)
(5.90909 1.77571e-13 0)
(5.90909 1.7481e-13 0)
(5.90909 1.36644e-13 0)
(5.90909 1.20994e-13 0)
(5.90909 7.10889e-14 0)
(5.90909 4.0507e-14 0)
(5.90909 1.96901e-14 0)
(5.90909 9.10491e-15 0)
(5.90909 -3.90067e-16 0)
(5.90909 5.46428e-15 0)
(5.90909 1.58894e-14 0)
(5.90909 1.19287e-14 0)
(5.90909 -1.54893e-14 0)
(5.90909 -5.01987e-14 0)
(5.90909 -4.37709e-14 0)
(5.90909 2.23672e-14 0)
(5.90909 4.6248e-14 0)
(5.90909 1.09019e-15 0)
(5.90909 -6.7805e-14 0)
(5.90909 -6.9362e-14 0)
(5.90909 -1.17817e-13 0)
(5.90909 -1.13813e-13 0)
(5.90909 -9.55332e-14 0)
(5.90909 -8.40812e-14 0)
(5.90909 -9.65607e-14 0)
(5.90909 6.47445e-15 0)
(5.90909 4.84417e-15 0)
(5.90909 6.65782e-15 0)
(5.90909 1.46592e-14 0)
(5.90909 3.98535e-14 0)
(5.90909 6.45878e-14 0)
(5.90909 6.1914e-14 0)
(5.90909 6.73216e-14 0)
(5.90909 8.24609e-14 0)
(5.90909 1.71896e-14 0)
(5.90909 -7.9037e-14 0)
(5.90909 -9.41729e-14 0)
(5.90909 -6.71949e-14 0)
(5.90909 -2.02435e-14 0)
(5.90909 -7.24458e-15 0)
(5.90909 6.46178e-14 0)
(5.90909 7.42495e-14 0)
(5.90909 7.92904e-14 0)
(5.90909 2.57511e-14 0)
(5.90909 2.04035e-15 0)
(5.90909 -3.75865e-14 0)
(5.90909 -6.23641e-14 0)
(5.90909 -4.6508e-14 0)
(5.90909 -2.59345e-14 0)
(5.90909 7.14457e-15 0)
(5.90909 6.66615e-14 0)
(5.90909 6.24074e-14 0)
(5.90909 2.29073e-14 0)
(5.90909 -7.06655e-14 0)
(5.90909 -1.22114e-13 0)
(5.90909 -1.12566e-13 0)
(5.90909 -6.65982e-14 0)
(5.90909 -3.19422e-14 0)
(5.90909 -4.95419e-15 0)
(5.90909 -3.27923e-14 0)
(5.90909 -9.30161e-16 0)
(5.90909 4.73982e-14 0)
(5.90909 8.17374e-14 0)
(5.90909 4.80083e-14 0)
(5.90909 2.72129e-14 0)
(5.90909 6.28775e-15 0)
(5.90909 3.63629e-14 0)
(5.90909 5.93536e-14 0)
(5.90909 5.03854e-14 0)
(5.90909 4.75782e-14 0)
(5.90909 7.61398e-14 0)
(5.90909 1.1645e-13 0)
(5.90909 1.28496e-13 0)
(5.90909 1.13596e-13 0)
(5.90909 9.99173e-14 0)
(5.90909 1.94e-14 0)
(5.90909 -4.4351e-14 0)
(5.90909 -7.22291e-14 0)
(5.90909 -7.36661e-14 0)
(5.90909 -5.59697e-14 0)
(5.90909 -7.17824e-14 0)
(5.90909 -6.12072e-14 0)
(5.90909 -3.24523e-14 0)
(5.90909 -1.33956e-14 0)
(5.90909 -8.57815e-15 0)
(5.90909 -3.5006e-16 0)
(5.90909 -2.41875e-14 0)
(5.90909 -3.47727e-14 0)
(5.90909 -5.34326e-14 0)
(5.90909 -6.64481e-14 0)
(5.90909 -4.49811e-14 0)
(5.90909 -4.6518e-14 0)
(5.90909 -2.16271e-14 0)
(5.90909 1.50093e-14 0)
(5.90909 3.00685e-14 0)
(5.90909 3.24389e-14 0)
(5.90909 3.68297e-14 0)
(5.90909 9.19859e-14 0)
(5.90909 1.05735e-13 0)
(5.90909 9.82403e-14 0)
(5.90909 1.5711e-13 0)
(5.90909 1.44112e-13 0)
(5.90909 1.69163e-13 0)
(5.90909 1.57554e-13 0)
(5.90909 1.50299e-13 0)
(5.90909 -8.37145e-15 0)
(5.90909 -5.76099e-15 0)
(5.90909 -3.55228e-14 0)
(5.90909 -4.36275e-14 0)
(5.90909 -2.47509e-14 0)
(5.90909 -2.53377e-15 0)
(5.90909 1.53727e-14 0)
(5.90909 -9.45497e-15 0)
(5.90909 -3.24789e-14 0)
(5.90909 -1.86032e-15 0)
(5.90909 1.70996e-14 0)
(5.90909 2.40542e-14 0)
(5.90909 2.3004e-15 0)
(5.90909 -1.95367e-14 0)
(5.90909 -4.49411e-15 0)
(5.90909 -6.23774e-15 0)
(5.90909 -9.65167e-15 0)
(5.90909 4.43743e-15 0)
(5.90909 8.5048e-15 0)
(5.90909 2.61245e-14 0)
(5.90909 -8.59949e-14 0)
(5.90909 -1.61451e-13 0)
(5.90909 -1.9069e-13 0)
(5.90909 -2.3377e-13 0)
(5.90909 -2.60922e-13 0)
(5.90909 -2.23462e-13 0)
(5.90909 -5.66364e-14 0)
(5.90909 3.12821e-14 0)
(5.90909 1.40134e-13 0)
(5.90909 1.11799e-13 0)
(5.90909 4.55312e-14 0)
(5.90909 1.99468e-14 0)
(5.90909 -2.05035e-15 0)
(5.90909 -1.20021e-14 0)
(5.90909 -3.03752e-14 0)
(5.90909 -2.28306e-14 0)
(5.90909 7.88803e-15 0)
(5.90909 9.59166e-15 0)
(5.90909 6.42444e-15 0)
(5.90909 2.43332e-14 0)
(5.90909 -3.74065e-15 0)
(5.90909 -1.60161e-14 0)
(5.90909 -2.63145e-14 0)
(5.90909 -1.95767e-14 0)
(5.90909 1.14753e-14 0)
(5.90909 3.62063e-15 0)
(5.90909 -6.44711e-14 0)
(5.90909 -8.39245e-14 0)
(5.90909 -5.69232e-14 0)
(5.90909 1.97367e-15 0)
(5.90909 7.05722e-14 0)
(5.90909 1.09219e-13 0)
(5.90909 4.26407e-15 0)
(5.90909 -4.52445e-14 0)
(5.90909 -9.16458e-14 0)
(5.90909 -5.47561e-14 0)
(5.90909 -3.40726e-14 0)
(5.90909 -5.83567e-14 0)
(5.90909 -6.26141e-14 0)
(5.90909 -1.69896e-14 0)
(5.90909 -1.95834e-14 0)
(5.90909 -3.69497e-14 0)
(5.90909 -4.76049e-14 0)
(5.90909 -5.31092e-14 0)
(5.90909 -7.68333e-14 0)
(5.90909 -6.28275e-14 0)
(5.90909 -2.89717e-14 0)
(5.90909 -3.35525e-14 0)
(5.90909 -5.27391e-14 0)
(5.90909 -8.92287e-14 0)
(5.90909 -8.04072e-14 0)
(5.90909 -8.56681e-14 0)
(5.90909 -1.05452e-13 0)
(5.90909 -9.94938e-14 0)
(5.90909 -9.91971e-14 0)
(5.90909 -1.38314e-13 0)
(5.90909 -2.86416e-14 0)
(5.90909 2.26772e-14 0)
(5.90909 1.04551e-14 0)
(5.90909 -1.53144e-14 0)
(5.90909 8.38812e-15 0)
(5.90909 2.14804e-14 0)
(5.90909 1.67896e-14 0)
(5.90909 -3.93401e-16 0)
(5.90909 -3.04519e-14 0)
(5.90909 -8.65349e-14 0)
(5.90909 -9.73868e-14 0)
(5.90909 -4.52645e-14 0)
(5.90909 -1.31523e-14 0)
(5.90909 4.27674e-14 0)
(5.90909 8.81652e-14 0)
(5.90909 9.03123e-14 0)
(5.90909 4.93952e-14 0)
(5.90909 -7.63132e-15 0)
(5.90909 -3.52694e-14 0)
(5.90909 -4.59913e-14 0)
(5.90909 -5.14389e-14 0)
(5.90909 -5.4196e-14 0)
(5.90909 -1.7503e-14 0)
(5.90909 3.80066e-14 0)
(5.90909 8.53247e-14 0)
(5.90909 1.47552e-13 0)
(5.90909 1.7602e-13 0)
(5.90909 1.42648e-13 0)
(5.90909 5.32592e-14 0)
(5.90909 1.76397e-14 0)
(5.90909 1.26789e-14 0)
(5.90909 -4.94385e-14 0)
(5.90909 -1.44052e-13 0)
(5.90909 -1.41881e-13 0)
(5.90909 -1.98748e-13 0)
(5.90909 -2.26749e-13 0)
(5.90909 -2.16034e-13 0)
(5.90909 -2.24422e-13 0)
(5.90909 -5.98137e-14 0)
(5.90909 1.10886e-14 0)
(5.90909 2.44742e-14 0)
(5.90909 4.54045e-14 0)
(5.90909 7.07322e-14 0)
(5.90909 -4.4229e-14 0)
(5.90909 2.19705e-15 0)
(5.90909 4.15405e-15 0)
(5.90909 1.49226e-14 0)
(5.90909 -2.23372e-16 0)
(5.90909 -1.945e-14 0)
(5.90909 -1.34123e-14 0)
(5.90909 1.24455e-14 0)
(5.90909 2.3184e-14 0)
(5.90909 4.88418e-15 0)
(5.90909 -1.99068e-14 0)
(5.90909 -3.58129e-14 0)
(5.90909 -2.7068e-14 0)
(5.90909 1.72797e-14 0)
(5.90909 3.53294e-14 0)
(5.90909 3.69564e-14 0)
(5.90909 1.70663e-14 0)
(5.90909 1.5236e-15 0)
(5.90909 -2.85249e-14 0)
(5.90909 -5.44194e-14 0)
(5.90909 -9.27427e-14 0)
(5.90909 -1.12736e-13 0)
(5.90909 -9.2846e-14 0)
(5.90909 -2.05969e-14 0)
(5.90909 -4.34075e-15 0)
(5.90909 7.9247e-15 0)
(5.90909 -8.15441e-14 0)
(5.90909 -8.41812e-14 0)
(5.90909 -7.51563e-14 0)
(5.90909 -8.59315e-14 0)
(5.90909 -8.59115e-14 0)
(5.90909 -8.12774e-14 0)
(5.90909 -7.3276e-14 0)