/*--------------------------------*- C++ -*----------------------------------*\
| =========                 |                                                 |
| \\      /  F ield         | OpenFOAM: The Open Source CFD Toolbox           |
|  \\    /   O peration     | Version:  2206                                  |
|   \\  /    A nd           | Website:  www.openfoam.com                      |
|    \\/     M anipulation  |                                                 |
\*---------------------------------------------------------------------------*/
FoamFile
{
    version     2.0;
    format      ascii;
    arch        "LSB;label=32;scalar=64";
    class       volScalarField;
    location    "0.16";
    object      T;
}
// * * * * * * * * * * * * * * * * * * * * * * * * * * * * * * * * * * * * * //

dimensions      [0 0 0 1 0 0 0];

internalField   nonuniform List<scalar> 
4800
(
1
1
1
1
1
1
1
1
1
1
1
1
1
1
1
1
1
1
1
1
1
1
1
1
1
1
1
1
1
1
1
1
1
1
1
1
1
1
1
1
1
1
1
1
1
1
1
1
1
1
1
1
1
1
1
1
1
1
1
1
1
1
1
1
1
1
1
1
1
1
1
1
1
1
1
1
1
1
1
1
1
1
1
1
1
1
1
1
1
1
1
1
1
1
1
1
1
1
1
1
1
1
1
1
1
1
1
1
1
1
1
1
1
1
1
1
1
1
1
1
1
1
1
1
1
1
1
1
1
1
1
1
1
1
1
1
1
1
1
1
1
1
1
1
1
1
1
1
1
1
1
1
1
1
1
1
1
1
1
1
1
1
1
1
1
1
1
1
1
1
1
1
1
1
1
1
1
1
1
1
1
1
1
1
1
1
1
1
1
1
1
1
1
1
1
1
1
1
1
1
1
1
1
1
1
1
1
1
1
1
1
1
1
1
1
1
1
1
1
1
1
1
1
1
1
1
1
1
1
1
1
1
1
1
1
1
1
1
1
1
1
1
1
1
1
1
1
1
1
1
1
1
1
1
1
1
1
1
1
1
1
1
1
1
1
1
1
1
1
1
1
1
1
1
1
1
1
1
1
1
1
1
1
1
1
1
1
1
1
1
1
1
1
1
1
1
1
1
1
1
1
1
1
1
1
1
1
1
1
1
1
1
1
1
1
1
1
1
1
1
1
1
1
1
1
1
1
1
1
1
1
1
1
1
1
1
1
1
1
1
1
1
1
1
1
1
1
1
1
1
1
1
1
1
1
1
1
1
1
1
1
1
1
1
1
1
1
1
1
1
1
1
1
1
1
1
1
1
1
1
1
1
1
1
1
1
1
1
1
1
1
1
1
1
1
1
1
1
1
1
1
1
1
1
1
1
1
1
1
1
1
1
1
1
1
1
1
1
1
1
1
1
1
1
1
1
1
1
1
1
1
1
1
1
1
1
1
1
1
1
1
1
1
1
1
1
1
1
1
1
1
1
1
1
1
1
1
1
1
1
1
1
1
1
1
1
1
1
1
1
1
1
1
1
1
1
1
1
1
1
1
1
1
1
1
1
1
1
1
1
1
1
1
1
1
1
1
1
1
1
1
1
1
1
1
1
1
1
1
1
1
1
1
1
1
1
1
1
1
1
1
1
1
1
1
1
1
1
1
1
1
1
1
1
1
1
1
1
1
1
1
1
1
1
1
1
1
1
1
1
1
1
1
1
1
1
1
1
1
1
1
1
1
1
1
1
1
1
1
1
1
1
1
1
1
1
1
1
1
1
1
1
1
1
1
1
1
1
1
1
1
1
1
1
1
1
1
1
1
1
1
1
1
1
1
1
1
1
1
1
1
1
1
1
1
1
1
1
1
1
1
1
1
1
1
1
1
1
1
1
1
1
1
1
1
1
1
1
1
1
1
1
1
1
1
1
1
1
1
1
1
1
1
1
1
1
1
1
1
1
1
1
1
1
1
1
1
1
1
1
1
1
1
1
1
1
1
1
1
1
1
1
1
1
1
1
1
1
1
1
1
1
1
1
1
1
1
1
1
1
1
1
1
1
1
1
1
1
1
1
1
1
1
1
1
1
1
1
1
1
1
1
1
1
1
1
1
1
1
1
1
1
1
1
1
1
1
1
1
1
1
1
1
1
1
1
1
1
1
1
1
1
1
1
1
1
1
1
1
1
1
1
1
1
1
1
1
1
1
1
1
1
1
1
1
1
1
1
1
1
1
1
1
1
1
1
1
1
1
1
1
1
1
1
1
1
1
1
1
1
1
1
1
1
1
1
1
1
1
1
1
1
1
1
1
1
1
1
1
1
1
1
1
1
1
1
1
1
1
1
1
1
1
1
1
1
1
1
1
1
1
1
1
1
1
1
1
1
1
1
1
1
1
1
1
1
1
1
1
1
1
1
1
1
1
1
1
1
1
1
1
1
1
1
1
1
1
1
1
1
1
1
1
1
1
1
1
1
1
1
1
1
1
1
1
1
1
1
1
1
1
1
1
1
1
1
1
1
1
1
1
1
1
1
1
1
1
1
1
1
1
1
1
1
1
1
1
1
1
1
1
1
1
1
1
1
1
1
1
1
1
1
1
1
1
1
1
1
1
1
1
1
1
1
1
1
1
1
1
1
1
1
1
1
1
1
1
1
1
1
1
1
1
1
1
1
1
1
1
1
1
1
1
1
1
1
1
1
1
1
1
1
1
1
1
1
1
1
1
1
1
1
1
1
1
1
1
1
1
1
1
1
1
1
1
1
1
1
1
1
1
1
1
1
1
1
1
1
1
1
1
1
1
1
1
1
1
1
1
1
1
1
1
1
1
1
1
1
1
1
1
1
1
1
1
1
1
1
1
1
1
1
1
1
1
1
1
1
1
1
1
1
1
1
1
1
1
1
1
1
1
1
1
1
1
1
1
1
1
1
1
1
1
1
1
1
1
1
1
1
1
1
1
1
1
1
1
1
1
1
1
1
1
1
1
1
1
1
1
1
1
1
1
1
1
1
1
1
1
1
1
1
1
1
1
1
1
1
1
1
1
1
1
1
1
1
1
1
1
1
1
1
1
1
1
1
1
1
1
1
1
1
1
1
1
1
1
1
1
1
1
1
1
1
1
1
1
1
1
1
1
1
1
1
1
1
1
1
1
1
1
1
1
1
1
1
1
1
1
1
1
1
1
1
1
1
1
1
1
1
1
1
1
1
1
1
1
1
1
1
1
1
1
1
1
1
1
1
1
1
1
1
1
1
1
1
1
1
1
1
1
1
1
1
1
1
1
1
1
1
1
1
1
1
1
1
1
1
1
1
1
1
1
1
1
1
1
1
1
1
1
1
1
1
1
1
1
1
1
1
1
1
1
1
1
1
1
1
1
1
1
1
1
1
1
1
1
1
1
1
1
1
1
1
1
1
1
1
1
1
1
1
1
1
1
1
1
1
1
1
1
1
1
1
1
1
1
1
1
1
1
1
1
1
1
1
1
1
1
1
1
1
1
1
1
1
1
1
1
1
1
1
1
1
1
1
1
1
1
1
1
1
1
1
1
1
1
1
1
1
1
1
1
1
1
1
1
1
1
1
1
1
1
1
1
1
1
1
1
1
1
1
1
1
1
1
1
1
1
1
1
1
1
1
1
1
1
1
1
1
1
1
1
1
1
1
1
1
1
1
1
1
1
1
1
1
1
1
1
1
1
1
1
1
1
1
1
1
1
1
1
1
1
1
1
1
1
1
1
1
1
1
1
1
1
1
1
1
1
1
1
1
1
1
1
1
1
1
1
1
1
1
1
1
1
1
1
1
1
1
1
1
1
1
1
1
1
1
1
1
1
1
1
1
1
1
1
1
1
1
1
1
1
1
1
1
1
1
1
1
1
1
1
1
1
1
1
1
1
1
1
1
1
1
1
1
1
1
1
1
1
1
1
1
1
1
1
1
1
1
1
1
1
1
1
1
1
1
1
1
1
1
1
1
1
1
1
1
1
1
1
1
1
1
1
1
1
1
1
1
1
1
1
1
1
1
1
1
1
1
1
1
1
1
1
1
1
1
1
1
1
1
1
1
1
1
1
1
1
1
1.07049
1.16363
1.26325
1.35617
1.43693
1.53023
1.64061
1.71371
1.75602
1.81123
1.89573
1.93118
1.93141
1.93963
1.9384
1.92712
1.89855
1.85024
1.80635
1.7718
1.73744
1.71226
1.71314
1.71541
1.71131
1.70819
1.71104
1.7212
1.73718
1.74508
1.74342
1.74162
1.74256
1.74684
1.75227
1.75494
1.756
1.75675
1.75808
1.75945
1.75955
1.75793
1.75502
1.75309
1.75283
1.75402
1.75745
1.76189
1.76474
1.76596
1.76608
1.76566
1.76492
1.76373
1.76099
1.75757
1.75561
1.75552
1.75684
1.7606
1.76608
1.77055
1.77284
1.77316
1.77216
1.76866
1.76436
1.7613
1.76
1.7595
1.75955
1.76031
1.76158
1.76338
1.76667
1.77049
1.77389
1.77585
1.77658
1.77478
1
0.999954
0.999515
1.00821
1.03644
1.05604
1.10021
1.20173
1.29528
1.34592
1.42227
1.51437
1.56304
1.60564
1.64839
1.69049
1.69987
1.71493
1.77395
1.79643
1.79151
1.7825
1.78226
1.78372
1.78019
1.76728
1.75341
1.75335
1.75243
1.75012
1.74695
1.74531
1.7465
1.75123
1.75668
1.75714
1.75719
1.75757
1.7603
1.76374
1.76409
1.76292
1.76157
1.76189
1.76278
1.76386
1.76386
1.76302
1.76244
1.76314
1.76541
1.76808
1.76883
1.76848
1.76808
1.76726
1.76566
1.76396
1.76355
1.76416
1.76488
1.76606
1.76808
1.76963
1.7699
1.76932
1.76844
1.76855
1.76893
1.76945
1.76965
1.76908
1.76814
1.76805
1.76806
1.76844
1.76935
1.77062
1.77197
1.77223
1
1
1
1
1
0.999999
0.999999
1
0.999831
1.00069
1.00893
1.05215
1.1202
1.20741
1.34877
1.49014
1.62679
1.74358
1.83521
1.86661
1.86172
1.85936
1.85579
1.85015
1.84256
1.82613
1.79935
1.77374
1.77252
1.76944
1.76457
1.76396
1.7652
1.7687
1.77359
1.77359
1.77249
1.77153
1.77223
1.77341
1.77412
1.77588
1.77777
1.77908
1.78067
1.78094
1.77987
1.77623
1.77181
1.77033
1.77059
1.77277
1.77745
1.78107
1.78166
1.78125
1.78011
1.77826
1.77614
1.77418
1.77236
1.77127
1.7704
1.76996
1.77034
1.77233
1.77573
1.77906
1.78108
1.78182
1.78175
1.78062
1.77821
1.77621
1.77481
1.77335
1.77208
1.77118
1.77072
1.77157
1
1
1
1
1
1
1
1
1
1
1
1
1
0.999671
1.00186
1.01874
1.10819
1.27782
1.45155
1.63671
1.7173
1.79442
1.83421
1.83455
1.83388
1.81921
1.81978
1.81997
1.82626
1.8255
1.81794
1.81024
1.80744
1.80511
1.79969
1.79123
1.78309
1.78111
1.78166
1.78352
1.78639
1.79112
1.79795
1.80264
1.80428
1.80413
1.80142
1.79375
1.78604
1.78394
1.78398
1.78513
1.78819
1.79264
1.79607
1.79736
1.79737
1.79577
1.79264
1.78922
1.78614
1.78328
1.78105
1.77958
1.77911
1.77962
1.78154
1.78596
1.79119
1.79373
1.79376
1.79215
1.78912
1.78527
1.78146
1.77872
1.77678
1.77624
1.77649
1.77746
1
1
1
1
1
1
1
1
1
1
1
1
1
1
1
1
1
0.99956
1.00332
1.06721
1.20798
1.35378
1.52865
1.6639
1.79286
1.8462
1.8559
1.87082
1.86874
1.86335
1.85676
1.84943
1.84051
1.82601
1.81876
1.81276
1.80619
1.80108
1.79906
1.79898
1.79957
1.80269
1.80953
1.8148
1.81647
1.81661
1.81483
1.80947
1.8038
1.80263
1.80252
1.80281
1.8033
1.80395
1.80493
1.80595
1.80689
1.80725
1.80653
1.80407
1.80132
1.79921
1.79751
1.79543
1.79352
1.79279
1.79311
1.7945
1.79681
1.79928
1.80032
1.80007
1.79809
1.79447
1.79193
1.79059
1.78936
1.7888
1.7888
1.78859
1
1
1
1
1
1
1
1
1
1
1
1
1
1
1
1
1
1
1
1
0.999883
0.999933
1.02916
1.13034
1.27555
1.47816
1.61082
1.73347
1.77919
1.79993
1.8128
1.81397
1.8221
1.83505
1.83832
1.8385
1.83386
1.82789
1.82212
1.81592
1.8099
1.80701
1.80763
1.80892
1.81099
1.81386
1.81558
1.81677
1.81877
1.81997
1.81988
1.81881
1.81626
1.8132
1.81084
1.81019
1.80996
1.81028
1.81204
1.81432
1.81563
1.81587
1.81555
1.81418
1.81119
1.80746
1.80613
1.80588
1.80546
1.80474
1.80374
1.80296
1.80276
1.80327
1.80427
1.80447
1.80422
1.80399
1.80379
1.80251
1
1
1
1
1
1
1
1
1
1
1
1
1
1
1
1
1
1
1
1
1
1
1
0.999999
0.99951
1.01538
1.07283
1.18822
1.38552
1.54545
1.66611
1.73259
1.79227
1.83152
1.83896
1.83952
1.83921
1.83705
1.83205
1.82282
1.81326
1.8076
1.80638
1.80645
1.80751
1.80899
1.81232
1.81715
1.82149
1.82395
1.82526
1.82518
1.82269
1.81684
1.81179
1.81019
1.80975
1.80948
1.81098
1.81616
1.82175
1.82443
1.82474
1.82411
1.82233
1.81973
1.81514
1.81175
1.81018
1.80909
1.80806
1.80753
1.80774
1.80859
1.81029
1.81227
1.81388
1.8148
1.81499
1.81345
1
1
1
1
1
1
1
1
1
1
1
1
1
1
1
1
1
1
1
1
1
1
1
1
1
1
1
0.99965
1.00806
1.0418
1.1419
1.34345
1.49882
1.63457
1.69481
1.7471
1.78606
1.80048
1.81062
1.81681
1.81978
1.816
1.81214
1.81007
1.80733
1.80537
1.80495
1.80715
1.8115
1.81692
1.82099
1.82255
1.82333
1.82205
1.81667
1.81202
1.81017
1.80996
1.81077
1.81323
1.81741
1.82186
1.8253
1.82609
1.82509
1.82261
1.82096
1.81971
1.81802
1.81611
1.81387
1.81235
1.81226
1.81248
1.81297
1.81432
1.81654
1.81836
1.81931
1.81846
1
1
1
1
1
1
1
1
1
1
1
1
1
1
1
1
1
1
1
1
1
1
1
1
1
1
1
1
1
1
0.999716
1.00451
1.02753
1.12457
1.30323
1.43734
1.57339
1.66225
1.75314
1.79692
1.81016
1.81243
1.8115
1.80977
1.80587
1.80025
1.79515
1.79295
1.79386
1.79879
1.80653
1.81373
1.81734
1.81914
1.82002
1.81911
1.81625
1.81297
1.81045
1.81049
1.81217
1.81441
1.81548
1.81625
1.81681
1.81767
1.81931
1.82143
1.82235
1.822
1.82056
1.81794
1.8154
1.81492
1.81561
1.81655
1.81696
1.81757
1.81768
1.81719
1
1
1
1
1
1
1
1
1
1
1
1
1
1
1
1
1
1
1
1
1
1
1
1
1
1
1
1
1
1
1
1
1
0.999753
1.00262
1.01618
1.10693
1.2825
1.43354
1.56685
1.651
1.73855
1.77842
1.78689
1.79216
1.79685
1.79247
1.78261
1.78166
1.78648
1.7927
1.79729
1.80279
1.8079
1.81027
1.81233
1.81507
1.81608
1.81516
1.81189
1.80881
1.80725
1.80646
1.80558
1.80559
1.80661
1.81001
1.81611
1.82005
1.82044
1.82009
1.82016
1.81993
1.81906
1.81757
1.81588
1.81481
1.81437
1.81439
1.81444
1
1
1
1
1
1
1
1
1
1
1
1
1
1
1
1
1
1
1
1
1
1
1
1
1
1
1
1
1
1
1
1
1
1
1
1
0.999809
1.00246
1.01969
1.12077
1.26854
1.42362
1.56317
1.65938
1.74715
1.775
1.78046
1.78384
1.78638
1.78303
1.78144
1.78181
1.78226
1.78315
1.78847
1.79734
1.80524
1.80868
1.81023
1.81154
1.81141
1.8091
1.80461
1.79932
1.79704
1.79786
1.80167
1.80686
1.81079
1.8141
1.81576
1.81607
1.81639
1.81708
1.81729
1.81666
1.81503
1.81318
1.81255
1.81283
1
1
1
1
1
1
1
1
1
1
1
1
1
1
1
1
1
1
1
1
1
1
1
1
1
1
1
1
1
1
1
1
1
1
1
1
1
0.999998
1
0.999945
1.00216
1.02233
1.13953
1.28285
1.43943
1.56271
1.67743
1.76275
1.77475
1.77339
1.77784
1.77642
1.76954
1.76671
1.76748
1.77249
1.78123
1.7916
1.79758
1.80033
1.80272
1.8048
1.80574
1.80397
1.79852
1.79502
1.79522
1.79795
1.80158
1.80285
1.8036
1.80495
1.80745
1.81067
1.81176
1.8116
1.81176
1.81268
1.81332
1.81334
1
1
1
1
1
1
1
1
1
1
1
1
1
1
1
1
1
1
1
1
1
1
1
1
1
1
1
1
1
1
1
1
1
1
1
1
1
1
1
1
0.999999
0.999963
1.00016
1.00341
1.03628
1.16208
1.31702
1.49894
1.61231
1.70611
1.75586
1.77016
1.77058
1.77099
1.76436
1.76325
1.7654
1.7708
1.77424
1.77688
1.78431
1.7939
1.79822
1.79779
1.79757
1.79867
1.79951
1.79981
1.79859
1.79529
1.79349
1.79388
1.79627
1.79966
1.8022
1.80399
1.80593
1.80766
1.809
1.81043
1
1
1
1
1
1
1
1
1
1
1
1
1
1
1
1
1
1
1
1
1
1
1
1
1
1
1
1
1
1
1
1
1
1
1
1
1
1
1
1
1
0.999999
0.999999
1
0.999955
1.00056
1.00737
1.07899
1.22448
1.37099
1.52046
1.64619
1.7472
1.76763
1.76705
1.77291
1.77608
1.76953
1.76251
1.76036
1.76407
1.77058
1.77774
1.78374
1.78743
1.79079
1.79462
1.7978
1.79844
1.79649
1.7909
1.78779
1.78798
1.79005
1.79302
1.79516
1.79659
1.79885
1.80194
1.80533
1
1
1
1
1
1
1
1
1
1
1
1
1
1
1
1
1
1
1
1
1
1
1
1
1
1
1
1
1
1
1
1
1
1
1
1
1
1
1
1
1
1
1
1
0.999999
0.999999
0.999987
1.00005
1.00189
1.01886
1.12139
1.27346
1.47662
1.61524
1.71227
1.7538
1.76949
1.77241
1.77218
1.76581
1.76119
1.76161
1.76306
1.76716
1.76711
1.76996
1.78056
1.79051
1.79218
1.79039
1.78844
1.78858
1.78926
1.78958
1.78976
1.79006
1.79049
1.7924
1.79504
1.7982
1
1
1
1
1
1
1
1
1
1
1
1
1
1
1
1
1
1
1
1
1
1
1
1
1
1
1
1
1
1
1
1
1
1
1
1
1
1
1
1
1
1
1
1
1
1
1
1
1
0.999976
1.00041
1.00548
1.07251
1.26086
1.42501
1.53593
1.6568
1.75433
1.7746
1.77212
1.7757
1.78097
1.77566
1.76646
1.76092
1.76159
1.76871
1.77517
1.7785
1.77885
1.77965
1.78181
1.78492
1.78777
1.78978
1.78983
1.78956
1.78993
1.79049
1.79129
1
1
1
1
1
1
1
1
1
1
1
1
1
1
1
1
1
1
1
1
1
1
1
1
1
1
1
1
1
1
1
1
1
1
1
1
1
1
1
1
1
1
1
1
1
1
1
1
1
0.999999
0.999999
0.999988
1.00017
1.00492
1.0351
1.15665
1.3193
1.5303
1.65968
1.7286
1.76336
1.77515
1.77574
1.77522
1.7733
1.77134
1.77143
1.77075
1.76882
1.76704
1.76543
1.76705
1.77357
1.78344
1.78601
1.78558
1.78595
1.78691
1.78853
1.78858
1
1
1
1
1
1
1
1
1
1
1
1
1
1
1
1
1
1
1
1
1
1
1
1
1
1
1
1
1
1
1
1
1
1
1
1
1
1
1
1
1
1
1
1
1
1
1
1
1
1
1
0.999999
0.999999
1
0.999997
1.00143
1.01274
1.12803
1.37133
1.54463
1.61787
1.69868
1.76028
1.77897
1.77955
1.78277
1.78918
1.78766
1.78
1.76983
1.76233
1.76359
1.77025
1.77529
1.77725
1.77736
1.77804
1.78101
1.78344
1.78383
1
1
1
1
1
1
1
1
1
1
1
1
1
1
1
1
1
1
1
1
1
1
1
1
1
1
1
1
1
1
1
1
1
1
1
1
1
1
1
1
1
1
1
1
1
1
1
1
1
1
1
1
1
1
1
1
0.999986
1.00153
1.022
1.13039
1.30441
1.47345
1.63929
1.70789
1.73895
1.76639
1.77967
1.78118
1.77868
1.77448
1.77479
1.77681
1.77951
1.77802
1.77425
1.77126
1.77082
1.77235
1.77393
1.77633
1
1
1
1
1
1
1
1
1
1
1
1
1
1
1
1
1
1
1
1
1
1
1
1
1
1
1
1
1
1
1
1
1
1
1
1
1
1
1
1
1
1
1
1
1
1
1
1
1
1
1
1
1
1
1
1
0.999999
1
0.999994
1.00123
1.01338
1.07715
1.29614
1.56882
1.67661
1.70316
1.7312
1.76327
1.76368
1.76271
1.77203
1.78545
1.78938
1.78863
1.78252
1.77601
1.77328
1.77227
1.77282
1.77339
1
1
1
1
1
1
1
1
1
1
1
1
1
1
1
1
1
1
1
1
1
1
1
1
1
1
1
1
1
1
1
1
1
1
1
1
1
1
1
1
1
1
1
1
1
1
1
1
1
1
1
1
1
1
1
1
1
1
1
1
0.999991
1.00057
1.01582
1.13587
1.39045
1.55281
1.67245
1.74096
1.74343
1.74029
1.75006
1.76827
1.77914
1.78008
1.77602
1.77492
1.77763
1.77915
1.77865
1.77799
1
1
1
1
1
1
1
1
1
1
1
1
1
1
1
1
1
1
1
1
1
1
1
1
1
1
1
1
1
1
1
1
1
1
1
1
1
1
1
1
1
1
1
1
1
1
1
1
1
1
1
1
1
1
1
1
1
1
1
1
1
0.999998
1.00001
1.00202
1.04133
1.15101
1.34279
1.58529
1.73715
1.75603
1.7639
1.75852
1.76089
1.76203
1.76087
1.76179
1.77033
1.77817
1.78055
1.78008
1
1
1
1
1
1
1
1
1
1
1
1
1
1
1
1
1
1
1
1
1
1
1
1
1
1
1
1
1
1
1
1
1
1
1
1
1
1
1
1
1
1
1
1
1
1
1
1
1
1
1
1
1
1
1
1
1
1
1
1
1
1
1
0.999997
1.00011
1.00228
1.03173
1.16466
1.47394
1.67363
1.75996
1.76825
1.76565
1.76769
1.76619
1.76556
1.76508
1.76758
1.76887
1.77194
1
1
1
1
1
1
1
1
1
1
1
1
1
1
1
1
1
1
1
1
1
1
1
1
1
1
1
1
1
1
1
1
1
1
1
1
1
1
1
1
1
1
1
1
1
1
1
1
1
1
1
1
1
1
1
1
1
1
1
1
1
1
1
1
1
0.999997
1.0001
1.00429
1.10481
1.33177
1.54092
1.67512
1.74361
1.7779
1.78965
1.78756
1.77967
1.76899
1.76183
1.76164
1
1
1
1
1
1
1
1
1
1
1
1
1
1
1
1
1
1
1
1
1
1
1
1
1
1
1
1
1
1
1
1
1
1
1
1
1
1
1
1
1
1
1
1
1
1
1
1
1
1
1
1
1
1
1
1
1
1
1
1
1
1
1
1
1
1
0.999999
1
1.00167
1.02537
1.1707
1.38999
1.57164
1.7186
1.78124
1.78705
1.78708
1.78744
1.78144
1.77087
1
1
1
1
1
1
1
1
1
1
1
1
1
1
1
1
1
1
1
1
1
1
1
1
1
1
1
1
1
1
1
1
1
1
1
1
1
1
1
1
1
1
1
1
1
1
1
1
1
1
1
1
1
1
1
1
1
1
1
1
1
1
1
1
1
1
1
1
0.999998
1.0001
1.00405
1.04711
1.24612
1.52281
1.68331
1.72675
1.76313
1.77843
1.77877
1.77914
1
1
1
1
1
1
1
1
1
1
1
1
1
1
1
1
1
1
1
1
1
1
1
1
1
1
1
1
1
1
1
1
1
1
1
1
1
1
1
1
1
1
1
1
1
1
1
1
1
1
1
1
1
1
1
1
1
1
1
1
1
1
1
1
1
1
1
1
1
1
0.999997
1.00042
1.0144
1.13253
1.4271
1.62578
1.70947
1.74788
1.75939
1.76807
1
1
1
1
1
1
1
1
1
1
1
1
1
1
1
1
1
1
1
1
1
1
1
1
1
1
1
1
1
1
1
1
1
1
1
1
1
1
1
1
1
1
1
1
1
1
1
1
1
1
1
1
1
1
1
1
1
1
1
1
1
1
1
1
1
1
1
1
1
1
1
0.999999
1.00005
1.00366
1.06433
1.32644
1.55873
1.7197
1.7403
1.74801
1
1
1
1
1
1
1
1
1
1
1
1
1
1
1
1
1
1
1
1
1
1
1
1
1
1
1
1
1
1
1
1
1
1
1
1
1
1
1
1
1
1
1
1
1
1
1
1
1
1
1
1
1
1
1
1
1
1
1
1
1
1
1
1
1
1
1
1
1
1
1
1
1
1
1.00109
1.04177
1.18264
1.46515
1.67776
1.75923
1
1
1
1
1
1
1
1
1
1
1
1
1
1
1
1
1
1
1
1
1
1
1
1
1
1
1
1
1
1
1
1
1
1
1
1
1
1
1
1
1
1
1
1
1
1
1
1
1
1
1
1
1
1
1
1
1
1
1
1
1
1
1
1
1
1
1
1
1
1
1
1
1
1
1
1.00041
1.00869
1.09384
1.37167
1.70756
1
1
1
1
1
1
1
1
1
1
1
1
1
1
1
1
1
1
1
1
1
1
1
1
1
1
1
1
1
1
1
1
1
1
1
1
1
1
1
1
1
1
1
1
1
1
1
1
1
1
1
1
1
1
1
1
1
1
1
1
1
1
1
1
1
1
1
1
1
1
1
1
1
1
1
0.999999
1.00002
1.00258
1.0553
1.52673
1
1
1
1
1
1
1
1
1
1
1
1
1
1
1
1
1
1
1
1
1
1
1
1
1
1
1
1
1
1
1
1
1
1
1
1
1
1
1
1
1
1
1
1
1
1
1
1
1
1
1
1
1
1
1
1
1
1
1
1
1
1
1
1
1
1
1
1
1
1
1
1
1
1
1
1
1
1.00001
1.00133
1.19929
1
1
1
1
1
1
1
1
1
1
1
1
1
1
1
1
1
1
1
1
1
1
1
1
1
1
1
1
1
1
1
1
1
1
1
1
1
1
1
1
1
1
1
1
1
1
1
1
1
1
1
1
1
1
1
1
1
1
1
1
1
1
1
1
1
1
1
1
1
1
1
1
1
1
1
1
1
1
1.00001
1.02357
1
1
1
1
1
1
1
1
1
1
1
1
1
1
1
1
1
1
1
1
1
1
1
1
1
1
1
1
1
1
1
1
1
1
1
1
1
1
1
1
1
1
1
1
1
1
1
1
1
1
1
1
1
1
1
1
1
1
1
1
1
1
1
1
1
1
1
1
1
1
1
1
1
1
1
1
1
1
1
1.00107
1
1
1
1
1
1
1
1
1
1
1
1
1
1
1
1
1
1
1
1
1
1
1
1
1
1
1
1
1
1
1
1
1
1
1
1
1
1
1
1
1
1
1
1
1
1
1
1
1
1
1
1
1
1
1
1
1
1
1
1
1
1
1
1
1
1
1
1
1
1
1
1
1
1
1
1
1
1
1
1.00003
1
1
1
1
1
1
1
1
1
1
1
1
1
1
1
1
1
1
1
1
1
1
1
1
1
1
1
1
1
1
1
1
1
1
1
1
1
1
1
1
1
1
1
1
1
1
1
1
1
1
1
1
1
1
1
1
1
1
1
1
1
1
1
1
1
1
1
1
1
1
1
1
1
1
1
1
1
1
1
1
1
1
1
1
1
1
1
1
1
1
1
1
1
1
1
1
1
1
1
1
1
1
1
1
1
1
1
1
1
1
1
1
1
1
1
1
1
1
1
1
1
1
1
1
1
1
1
1
1
1
1
1
1
1
1
1
1
1
1
1
1
1
1
1
1
1
1
1
1
1
1
1
1
1
1
1
1
1
1
1
1
1
1
1
1
1
1
1
1
1
1
1
1
1
1
1
1
1
1
1
1
1
1
1
1
1
1
1
1
1
1
1
1
1
1
1
1
1
1
1
1
1
1
1
1
1
1
1
1
1
1
1
1
1
1
1
1
1
1
1
1
1
1
1
1
1
1
1
1
1
1
1
1
1
1
1
1
1
1
1
1
1
1
1
1
1
1
1
1
1
1
1
1
1
1
1
1
1
1
1
1
1
1
1
1
1
1
1
1
1
1
1
1
1
1
1
1
1
1
1
1
1
1
1
1
1
1
1
1
1
1
1
1
1
1
1
1
1
1
1
1
1
1
1
1
1
1
1
1
1
1
1
1
1
1
1
1
1
1
1
1
1
1
1
1
1
1
1
1
1
1
1
1
1
1
1
1
1
1
1
1
1
1
1
1
1
1
1
1
1
1
1
1
1
1
1
1
1
1
1
1
1
1
1
1
1
1
1
1
1
1
1
1
1
1
1
1
1
1
1
1
1
1
1
1
1
1
1
1
1
1
1
1
1
1
1
1
1
1
1
)
;

boundaryField
{
    inlet
    {
        type            fixedValue;
        value           uniform 1;
    }
    outlet
    {
        type            zeroGradient;
    }
    bottom
    {
        type            symmetryPlane;
    }
    top
    {
        type            symmetryPlane;
    }
    obstacle
    {
        type            zeroGradient;
    }
    defaultFaces
    {
        type            empty;
    }
}


// ************************************************************************* //
