/*--------------------------------*- C++ -*----------------------------------*\
| =========                 |                                                 |
| \\      /  F ield         | OpenFOAM: The Open Source CFD Toolbox           |
|  \\    /   O peration     | Version:  2206                                  |
|   \\  /    A nd           | Website:  www.openfoam.com                      |
|    \\/     M anipulation  |                                                 |
\*---------------------------------------------------------------------------*/
FoamFile
{
    version     2.0;
    format      ascii;
    arch        "LSB;label=32;scalar=64";
    class       volVectorField;
    location    "0.06";
    object      U;
}
// * * * * * * * * * * * * * * * * * * * * * * * * * * * * * * * * * * * * * //

dimensions      [0 1 -1 0 0 0 0];

internalField   nonuniform List<vector> 
4800
(
(4.09091 1.57527e-14 0)
(4.09091 -2.9005e-16 0)
(4.09091 -1.41591e-14 0)
(4.09091 -2.81615e-14 0)
(4.09091 -4.05737e-14 0)
(4.09091 -7.51563e-14 0)
(4.09091 -7.35827e-14 0)
(4.09091 -5.85668e-14 0)
(4.09091 5.76433e-15 0)
(4.09091 3.2579e-14 0)
(4.09091 6.53313e-14 0)
(4.09091 4.86484e-14 0)
(4.09091 2.6838e-14 0)
(4.09091 -2.00368e-15 0)
(4.09091 -2.1467e-14 0)
(4.09091 -4.83317e-14 0)
(4.09091 -9.41629e-14 0)
(4.09091 -7.28426e-14 0)
(4.09091 -4.25407e-14 0)
(4.09091 -2.99152e-14 0)
(4.09091 7.97904e-14 0)
(4.09091 1.14973e-13 0)
(4.09091 1.04281e-13 0)
(4.09091 9.96039e-14 0)
(4.09091 7.65699e-14 0)
(4.09091 8.08506e-14 0)
(4.09091 7.26492e-14 0)
(4.09091 7.29359e-14 0)
(4.09091 9.59832e-15 0)
(4.09091 -9.91805e-14 0)
(4.09091 -1.77984e-13 0)
(4.09091 -2.24305e-13 0)
(4.09091 -2.34657e-13 0)
(4.09091 -8.73117e-14 0)
(4.09091 -4.51645e-14 0)
(4.09091 -6.61448e-15 0)
(4.09091 2.23405e-14 0)
(4.09091 -1.5686e-14 0)
(4.09091 -2.94151e-14 0)
(4.09091 -7.65632e-14 0)
(4.09091 -6.61114e-15 0)
(4.09091 -3.65096e-14 0)
(4.09091 -7.62632e-14 0)
(4.09091 -9.53165e-14 0)
(4.09091 -1.23968e-13 0)
(4.09091 -1.9148e-13 0)
(4.09091 -1.94187e-13 0)
(4.09091 -1.10662e-13 0)
(4.09091 -5.6143e-15 0)
(4.09091 -2.42709e-15 0)
(4.09091 -7.70133e-16 0)
(4.09091 -2.60845e-14 0)
(4.09091 -1.67029e-14 0)
(4.09091 -4.74282e-14 0)
(4.09091 -6.45011e-14 0)
(4.09091 -4.68148e-14 0)
(4.09091 -4.69148e-14 0)
(4.09091 -6.36443e-15 0)
(4.09091 3.76598e-14 0)
(4.09091 2.70347e-14 0)
(4.09091 7.32226e-14 0)
(4.09091 8.42379e-14 0)
(4.09091 6.01204e-14 0)
(4.09091 4.4241e-15 0)
(4.09091 -7.78801e-15 0)
(4.09091 1.04585e-14 0)
(4.09091 -3.69764e-14 0)
(4.09091 -5.72966e-14 0)
(4.09091 -3.63363e-14 0)
(4.09091 -6.37043e-14 0)
(4.09091 -1.06268e-13 0)
(4.09091 -1.53163e-13 0)
(4.09091 -1.83755e-13 0)
(4.09091 -1.40304e-13 0)
(4.09091 -6.97087e-14 0)
(4.09091 9.67834e-15 0)
(4.09091 7.23892e-14 0)
(4.09091 1.7303e-14 0)
(4.09091 -2.78148e-14 0)
(4.09091 -6.02745e-14 0)
(4.09091 -5.42894e-14 0)
(4.09091 -3.05786e-14 0)
(4.09091 -3.81833e-14 0)
(4.09091 -3.87667e-14 0)
(4.09091 -5.66331e-14 0)
(4.09091 -2.15804e-14 0)
(4.09091 -2.3224e-14 0)
(4.09091 -6.66248e-14 0)
(4.09091 -1.23341e-13 0)
(4.09091 -1.03775e-13 0)
(4.09091 -1.07652e-13 0)
(4.09091 -1.22508e-13 0)
(4.09091 -1.25538e-13 0)
(4.09091 -1.09972e-13 0)
(4.09091 -6.14206e-14 0)
(4.09091 -6.3751e-14 0)
(4.09091 -3.71898e-14 0)
(4.09091 1.07985e-14 0)
(4.09091 3.6813e-14 0)
(4.09091 4.8135e-14 0)
(4.09091 4.43877e-14 0)
(4.09091 5.36159e-14 0)
(4.09091 4.34675e-14 0)
(4.09091 -8.90787e-14 0)
(4.09091 -1.62955e-13 0)
(4.09091 -1.33953e-13 0)
(4.09091 -6.3941e-14 0)
(4.09091 1.18e-13 0)
(4.09091 1.32426e-13 0)
(4.09091 5.90435e-14 0)
(4.09091 -1.89133e-14 0)
(4.09091 -3.70397e-14 0)
(4.09091 -1.1856e-13 0)
(4.09091 -1.65555e-13 0)
(4.09091 -1.02571e-13 0)
(4.09091 -7.28226e-14 0)
(4.09091 -7.66399e-14 0)
(4.09091 -8.32144e-14 0)
(4.09091 -4.96319e-14 0)
(4.09091 -2.61766e-14 0)
(4.09091 2.26873e-14 0)
(4.09091 7.21391e-14 0)
(4.09091 7.738e-14 0)
(4.09091 5.13622e-14 0)
(4.09091 9.53065e-14 0)
(4.09091 1.43625e-13 0)
(4.09091 1.38014e-13 0)
(4.09091 9.67467e-14 0)
(4.09091 2.61612e-14 0)
(4.09091 -2.56478e-14 0)
(4.09091 -2.13504e-14 0)
(4.09091 -5.77433e-15 0)
(4.09091 4.68748e-15 0)
(4.09091 -8.73151e-15 0)
(4.09091 -9.50831e-15 0)
(4.09091 -3.03152e-14 0)
(4.09091 -5.28558e-14 0)
(4.09091 -3.54094e-14 0)
(4.09091 -1.40258e-14 0)
(4.09091 -1.7193e-14 0)
(4.09091 -2.06102e-14 0)
(4.09091 -2.48376e-15 0)
(4.09091 -3.40926e-14 0)
(4.09091 -4.24907e-14 0)
(4.09091 -6.21641e-14 0)
(4.09091 -3.44326e-14 0)
(4.09091 6.62081e-14 0)
(4.09091 1.48752e-13 0)
(4.09091 1.29516e-13 0)
(4.09091 8.06506e-14 0)
(4.09091 -1.917e-15 0)
(4.09091 -4.30908e-14 0)
(4.09091 -7.1199e-14 0)
(4.09091 -7.49029e-14 0)
(4.09091 -3.39392e-14 0)
(4.09091 1.30289e-14 0)
(4.09091 1.37657e-14 0)
(4.09091 -5.783e-14 0)
(4.09091 -8.68783e-14 0)
(4.09091 -7.48608e-14 0)
(4.09091 3.70597e-14 0)
(4.09091 3.02852e-14 0)
(4.09091 2.10236e-14 0)
(4.09091 7.93604e-14 0)
(4.09091 1.63395e-13 0)
(4.09091 1.82695e-13 0)
(4.09091 1.28245e-13 0)
(4.09091 8.89087e-14 0)
(4.09091 4.57279e-14 0)
(4.09091 2.45176e-14 0)
(4.09091 3.88067e-14 0)
(4.09091 7.14757e-14 0)
(4.09091 7.18324e-14 0)
(4.09091 -1.1332e-14 0)
(4.09091 -5.44761e-14 0)
(4.09091 -2.35507e-14 0)
(4.09091 -1.39691e-15 0)
(4.09091 2.00435e-14 0)
(4.09091 1.03128e-13 0)
(4.09091 9.37362e-14 0)
(4.09091 7.96137e-14 0)
(4.09091 5.89268e-14 0)
(4.09091 4.55812e-14 0)
(4.09091 7.82969e-14 0)
(4.09091 8.60282e-14 0)
(4.09091 8.70684e-14 0)
(4.09091 1.1301e-13 0)
(4.09091 3.879e-14 0)
(4.09091 3.36791e-14 0)
(4.09091 6.49712e-14 0)
(4.09091 1.22414e-13 0)
(4.09091 3.56462e-14 0)
(4.09091 -2.86816e-14 0)
(4.09091 -2.77948e-14 0)
(4.09091 -3.6903e-14 0)
(4.09091 -5.17089e-15 0)
(4.09091 2.99685e-14 0)
(4.09091 4.6258e-14 0)
(4.09091 -2.89283e-14 0)
(4.09091 -2.17853e-13 0)
(4.09091 -2.03368e-16 0)
(4.09091 -3.73931e-14 0)
(4.09091 -2.63946e-14 0)
(4.09091 1.7403e-14 0)
(4.09091 4.73015e-14 0)
(4.09091 4.92852e-14 0)
(4.09091 5.79967e-14 0)
(4.09091 3.91734e-15 0)
(4.09091 -3.92401e-14 0)
(4.09091 -1.44458e-14 0)
(4.09091 4.76749e-14 0)
(4.09091 6.13473e-14 0)
(4.09091 5.93836e-14 0)
(4.09091 9.73468e-14 0)
(4.09091 7.35827e-14 0)
(4.09091 6.95553e-14 0)
(4.09091 5.72265e-14 0)
(4.09091 5.10021e-14 0)
(4.09091 4.11438e-14 0)
(4.09091 2.92851e-14 0)
(4.09091 7.43762e-14 0)
(4.09091 1.20668e-13 0)
(4.09091 1.18364e-13 0)
(4.09091 1.00791e-13 0)
(4.09091 1.29992e-13 0)
(4.09091 9.60866e-14 0)
(4.09091 5.25924e-14 0)
(4.09091 -6.0017e-14 0)
(4.09091 -1.22328e-13 0)
(4.09091 -1.10566e-13 0)
(4.09091 -2.48543e-14 0)
(4.09091 -2.61712e-15 0)
(4.09091 3.91934e-14 0)
(4.09091 6.67649e-14 0)
(4.09091 9.41796e-14 0)
(4.09091 2.73814e-14 0)
(4.09091 -3.20055e-14 0)
(4.09091 -8.5048e-15 0)
(4.09091 -3.94535e-14 0)
(4.09091 -3.0188e-14 0)
(4.09091 -4.20406e-15 0)
(4.09091 -5.81434e-15 0)
(4.09091 1.34157e-14 0)
(4.09091 -1.00484e-14 0)
(4.09091 -5.99237e-14 0)
(4.09091 -9.90838e-14 0)
(4.09091 -9.16592e-14 0)
(4.09091 -1.5576e-14 0)
(4.09091 2.41075e-14 0)
(4.09091 2.13604e-14 0)
(4.09091 2.96885e-14 0)
(4.09091 5.46294e-14 0)
(4.09091 1.09706e-13 0)
(4.09091 1.69046e-13 0)
(4.09091 1.46639e-13 0)
(4.09091 6.11439e-14 0)
(4.09091 3.71364e-14 0)
(4.09091 -2.43375e-14 0)
(4.09091 -1.03471e-13 0)
(4.09091 -1.15543e-13 0)
(4.09091 -6.67782e-14 0)
(4.09091 -2.38941e-14 0)
(4.09091 4.62813e-14 0)
(4.09091 1.16737e-13 0)
(4.09091 1.15803e-13 0)
(4.09091 1.05568e-13 0)
(4.09091 9.58832e-15 0)
(4.09091 -1.88999e-14 0)
(4.09091 1.12086e-14 0)
(4.09091 4.64547e-14 0)
(4.09091 1.18144e-13 0)
(4.09091 8.8912e-14 0)
(4.09091 4.07637e-14 0)
(4.09091 2.93651e-14 0)
(4.09091 2.17538e-14 0)
(4.09091 4.05437e-14 0)
(4.09091 5.74866e-14 0)
(4.09091 2.88983e-14 0)
(4.09091 1.00884e-14 0)
(4.09091 4.46059e-14 0)
(4.09091 -1.07018e-15 0)
(4.09091 -1.17887e-14 0)
(4.09091 -1.36057e-14 0)
(4.09091 -7.52797e-15 0)
(4.09091 -1.05352e-14 0)
(4.09091 -1.79631e-14 0)
(4.09091 -1.98701e-14 0)
(4.09091 1.27955e-14 0)
(4.09091 7.18891e-14 0)
(4.09091 8.00605e-14 0)
(4.09091 1.00831e-13 0)
(4.09091 1.27265e-13 0)
(4.09091 9.62133e-14 0)
(4.09091 1.46692e-14 0)
(4.09091 1.42225e-14 0)
(4.09091 7.02855e-14 0)
(4.09091 -7.03455e-16 0)
(4.09091 -7.86469e-14 0)
(4.09091 -4.17172e-14 0)
(4.09091 -2.42208e-14 0)
(4.09091 -3.80232e-14 0)
(4.09091 -5.774e-14 0)
(4.09091 4.49078e-15 0)
(4.09091 6.92186e-14 0)
(4.09091 4.76682e-14 0)
(4.09091 -1.12463e-13 0)
(4.09091 -2.80975e-13 0)
(4.09091 -3.55141e-13 0)
(4.09091 -2.30166e-13 0)
(4.09091 -3.14088e-14 0)
(4.09091 1.15753e-14 0)
(4.09091 3.15088e-14 0)
(4.09091 7.50096e-14 0)
(4.09091 6.54546e-14 0)
(4.09091 -6.92453e-14 0)
(4.09091 -5.62697e-14 0)
(4.09091 -2.34741e-14 0)
(4.09091 -8.69017e-14 0)
(4.09091 -1.29319e-13 0)
(4.09091 -1.21154e-13 0)
(4.09091 -5.41427e-15 0)
(4.09091 -1.74697e-15 0)
(4.09091 -2.60745e-14 0)
(4.09091 -2.08236e-14 0)
(4.09091 -1.05018e-15 0)
(4.09091 4.7975e-14 0)
(4.09091 9.45863e-14 0)
(4.09091 1.10916e-13 0)
(4.09091 9.22626e-14 0)
(4.09091 8.1144e-14 0)
(4.09091 6.08672e-14 0)
(4.09091 1.7543e-14 0)
(4.09091 -7.04488e-14 0)
(4.09091 -1.03518e-13 0)
(4.09091 -1.33716e-13 0)
(4.09091 -1.05435e-13 0)
(4.09091 -8.52147e-14 0)
(4.09091 -4.23306e-14 0)
(4.09091 6.78784e-14 0)
(4.09091 8.11207e-14 0)
(4.09091 5.775e-14 0)
(4.09091 2.08736e-14 0)
(4.09091 -2.32307e-14 0)
(4.09091 -1.77431e-14 0)
(4.09091 -1.96434e-14 0)
(4.09091 -7.92504e-14 0)
(4.09091 -1.57354e-13 0)
(4.09091 -2.3218e-13 0)
(4.09091 -9.70068e-14 0)
(4.09091 -2.28706e-14 0)
(4.09091 -5.21957e-14 0)
(4.09091 -2.22872e-14 0)
(4.09091 4.90718e-14 0)
(4.09091 -1.64428e-14 0)
(4.09091 -1.04405e-13 0)
(4.09091 -1.53553e-13 0)
(4.09091 -1.67986e-13 0)
(4.09091 -1.7512e-13 0)
(4.09091 -1.08655e-13 0)
(4.09091 -1.08069e-13 0)
(4.09091 -9.13158e-15 0)
(4.09091 1.56194e-14 0)
(4.09091 -1.24088e-14 0)
(4.09091 -5.29291e-14 0)
(4.09091 -4.35442e-14 0)
(4.09091 -1.69996e-14 0)
(4.09091 5.98003e-14 0)
(4.09091 2.05302e-14 0)
(4.09091 -1.16453e-14 0)
(4.09091 -6.9412e-14 0)
(4.09091 -1.39231e-13 0)
(4.09091 -1.7172e-13 0)
(4.09091 -1.88559e-13 0)
(4.09091 -1.80064e-13 0)
(4.09091 -1.57267e-13 0)
(4.09091 -1.29676e-13 0)
(4.09091 -2.53444e-14 0)
(4.09091 1.12379e-13 0)
(4.09091 1.61491e-13 0)
(4.09091 1.41181e-13 0)
(4.09091 6.64515e-14 0)
(4.09091 -5.76099e-15 0)
(4.09091 -3.84233e-14 0)
(4.09091 -9.22993e-14 0)
(4.09091 -1.10436e-13 0)
(4.09091 -9.51398e-14 0)
(4.09091 -5.65631e-14 0)
(4.09091 -7.65866e-14 0)
(4.09091 -7.86502e-14 0)
(4.09091 -9.01456e-14 0)
(4.09091 -9.78436e-14 0)
(4.09091 -5.36326e-14 0)
(4.09091 -9.00089e-14 0)
(4.09091 -1.18754e-13 0)
(4.09091 -1.78838e-13 0)
(4.09091 -1.80781e-13 0)
(4.09091 -1.53957e-13 0)
(4.09091 -7.09322e-14 0)
(4.09091 4.40143e-14 0)
(4.09091 5.81359e-14 0)
(4.09091 3.35058e-15 0)
(4.09091 3.24956e-14 0)
(4.09091 6.60681e-14 0)
(4.09091 3.71331e-14 0)
(4.09091 5.90102e-16 0)
(4.09091 -5.53496e-14 0)
(4.09091 -6.7515e-14 0)
(4.09091 -7.64032e-14 0)
(4.09091 -9.18092e-14 0)
(4.09091 -1.02928e-13 0)
(4.09091 -7.04222e-14 0)
(4.09091 -7.38794e-14 0)
(4.09091 -8.16874e-14 0)
(4.09091 -1.05058e-13 0)
(4.09091 -9.88204e-14 0)
(4.09091 -1.22138e-13 0)
(4.09091 -8.19241e-14 0)
(4.09091 -1.15053e-14 0)
(4.09091 2.85216e-14 0)
(4.09091 3.99336e-14 0)
(4.09091 -9.37162e-15 0)
(4.09091 -1.50526e-14 0)
(4.09091 -3.78732e-14 0)
(4.09091 -9.37229e-14 0)
(4.09091 -1.40218e-13 0)
(4.09091 -1.05618e-13 0)
(4.09091 -1.02404e-13 0)
(4.09091 -6.40211e-14 0)
(4.09091 -3.86967e-14 0)
(4.09091 -1.1809e-13 0)
(4.09091 -1.56807e-13 0)
(4.09091 -1.75914e-13 0)
(4.09091 -1.65222e-13 0)
(4.09091 -1.81578e-13 0)
(4.09091 -1.41121e-13 0)
(4.09091 -1.59187e-13 0)
(4.09091 -1.54173e-13 0)
(4.09091 -6.79884e-14 0)
(4.09091 2.04269e-14 0)
(4.09091 7.4884e-14 0)
(4.09091 1.90133e-14 0)
(4.09091 3.07786e-14 0)
(4.09091 5.05721e-14 0)
(4.09091 3.26656e-14 0)
(4.09091 4.51745e-15 0)
(4.09091 -1.31723e-14 0)
(4.09091 -1.16483e-13 0)
(4.09091 -1.573e-13 0)
(4.09091 -1.7099e-13 0)
(4.09091 -8.50914e-14 0)
(4.09091 -6.32509e-14 0)
(4.09091 -6.76317e-14 0)
(4.09091 -7.82435e-14 0)
(4.09091 -9.98272e-14 0)
(4.09091 -1.55534e-13 0)
(4.09091 -2.38698e-13 0)
(4.09091 -2.37554e-13 0)
(4.09091 -1.30366e-13 0)
(4.09091 -8.13974e-14 0)
(4.09091 -7.21125e-15 0)
(4.09091 -3.23389e-16 0)
(4.09091 -1.38824e-14 0)
(4.09091 -1.17164e-13 0)
(4.09091 -1.52866e-13 0)
(4.09091 -1.34933e-13 0)
(4.09091 -4.37876e-14 0)
(4.09091 -4.11804e-14 0)
(4.09091 -2.9055e-14 0)
(4.09091 -1.40858e-14 0)
(4.09091 -4.65014e-14 0)
(4.09091 -1.46682e-13 0)
(4.09091 -2.41948e-13 0)
(4.09091 -2.3227e-13 0)
(4.09091 -1.9409e-13 0)
(4.09091 -1.29179e-13 0)
(4.09091 -1.7425e-13 0)
(4.09091 -1.7628e-13 0)
(4.09091 -1.42058e-13 0)
(4.09091 -1.15907e-13 0)
(4.09091 -1.59769e-13 0)
(4.09091 2.85716e-15 0)
(4.09091 -4.18439e-14 0)
(4.09091 -7.34927e-14 0)
(4.09091 -3.51894e-14 0)
(4.09091 -1.85365e-15 0)
(4.09091 -1.96701e-14 0)
(4.09091 -7.83869e-14 0)
(4.09091 -9.40829e-14 0)
(4.09091 -5.80067e-14 0)
(4.09091 -3.82233e-14 0)
(4.09091 -5.63131e-14 0)
(4.09091 -1.77914e-13 0)
(4.09091 -2.20865e-13 0)
(4.09091 -1.60998e-13 0)
(4.09091 -1.28229e-13 0)
(4.09091 -8.4688e-14 0)
(4.09091 -2.02502e-14 0)
(4.09091 -1.20888e-14 0)
(4.09091 -5.4176e-14 0)
(4.09091 -4.42176e-14 0)
(4.09091 5.05987e-14 0)
(4.09091 4.62613e-14 0)
(4.09091 -1.30356e-14 0)
(4.09091 -4.69948e-14 0)
(4.09091 -2.3234e-14 0)
(4.09091 4.27807e-14 0)
(4.09091 9.42796e-14 0)
(4.09091 5.33492e-14 0)
(4.09091 -3.0932e-14 0)
(4.09091 -8.22109e-14 0)
(4.09091 -1.09732e-13 0)
(4.09091 -3.25723e-14 0)
(4.09091 -1.07609e-13 0)
(4.09091 -1.26739e-13 0)
(4.09091 -1.08079e-13 0)
(4.09091 -2.9015e-14 0)
(4.09091 1.22021e-15 0)
(4.09091 4.47111e-14 0)
(4.09091 -1.95467e-14 0)
(4.09091 -9.14286e-14 0)
(4.09091 -1.80364e-15 0)
(4.09091 -1.34523e-14 0)
(4.09091 -1.88633e-14 0)
(4.09091 4.67814e-14 0)
(4.09091 8.9042e-14 0)
(4.09091 7.43362e-14 0)
(4.09091 2.20838e-14 0)
(4.09091 2.58845e-14 0)
(4.09091 8.74018e-14 0)
(4.09091 1.04958e-13 0)
(4.09091 1.85532e-14 0)
(4.09091 -2.89817e-14 0)
(4.09091 -5.10588e-14 0)
(4.09091 -5.37093e-15 0)
(4.09091 8.39945e-14 0)
(4.09091 1.9334e-13 0)
(4.09091 1.96064e-13 0)
(4.09091 1.00931e-13 0)
(4.09091 5.3816e-14 0)
(4.09091 6.29109e-15 0)
(4.09091 2.00035e-17 0)
(4.09091 1.42458e-14 0)
(4.09091 5.99804e-14 0)
(4.09091 7.55364e-14 0)
(4.09091 8.2981e-14 0)
(4.09091 8.34444e-14 0)
(4.09091 9.61766e-14 0)
(4.09091 6.75117e-14 0)
(4.09091 1.09532e-13 0)
(4.09091 1.20801e-13 0)
(4.09091 1.31649e-13 0)
(4.09091 1.86712e-13 0)
(4.09091 1.01534e-13 0)
(4.09091 3.28823e-14 0)
(4.09091 1.92133e-14 0)
(4.09091 1.24131e-13 0)
(4.09091 1.75714e-13 0)
(4.09091 1.66189e-13 0)
(4.09091 1.11716e-13 0)
(4.09091 5.61695e-14 0)
(4.09091 7.78468e-15 0)
(4.09091 1.68062e-14 0)
(4.09091 4.16872e-14 0)
(4.09091 6.60481e-14 0)
(4.09091 7.80668e-14 0)
(4.09091 9.23159e-14 0)
(4.09091 8.45013e-14 0)
(4.09091 1.49292e-14 0)
(4.09091 8.00138e-17 0)
(4.09091 3.67663e-14 0)
(4.09091 3.60362e-14 0)
(4.09091 9.25493e-14 0)
(4.09091 1.48066e-13 0)
(4.09091 1.1866e-13 0)
(4.09091 1.1346e-13 0)
(4.09091 1.46495e-13 0)
(4.09091 1.44782e-13 0)
(4.09091 3.34024e-14 0)
(4.09091 9.2916e-15 0)
(4.09091 2.24772e-14 0)
(4.09091 9.93638e-14 0)
(4.09091 1.14666e-13 0)
(4.09091 1.11353e-13 0)
(4.09091 1.66535e-13 0)
(4.09091 1.29962e-13 0)
(4.09091 5.72032e-14 0)
(4.09091 1.12853e-14 0)
(4.09091 1.03058e-13 0)
(4.09091 2.02915e-13 0)
(4.09091 1.25485e-13 0)
(4.09091 6.94953e-14 0)
(4.09091 5.99404e-14 0)
(4.09091 1.15087e-13 0)
(4.09091 5.23657e-14 0)
(4.09091 1.65462e-14 0)
(4.09091 3.15621e-14 0)
(4.09091 2.46743e-14 0)
(4.09091 6.57113e-15 0)
(4.09091 -1.44192e-14 0)
(4.09091 -7.14598e-14 0)
(4.09091 -1.31023e-15 0)
(4.09091 -1.15153e-14 0)
(4.09091 3.95502e-14 0)
(4.09091 3.66797e-14 0)
(4.09091 1.05352e-15 0)
(4.09091 -8.66816e-17 0)
(4.09091 -1.05352e-14 0)
(4.09091 -1.57194e-14 0)
(4.09091 -1.96434e-14 0)
(4.09091 -2.69913e-14 0)
(4.09091 2.10636e-14 0)
(4.09091 8.23942e-14 0)
(4.09091 1.57604e-13 0)
(4.09091 1.57997e-13 0)
(4.09091 6.24108e-14 0)
(4.09091 -4.52411e-15 0)
(4.09091 5.54762e-15 0)
(4.09091 1.29182e-13 0)
(4.09091 1.79254e-13 0)
(4.09091 2.07626e-13 0)
(4.09091 1.84609e-13 0)
(4.09091 1.55634e-13 0)
(4.09091 1.39651e-13 0)
(4.09091 1.44035e-13 0)
(4.09091 1.5352e-13 0)
(4.09091 1.62031e-13 0)
(4.09091 1.86039e-13 0)
(4.09091 2.09903e-13 0)
(4.09091 1.97121e-13 0)
(4.09091 2.75814e-14 0)
(4.09091 -7.36627e-14 0)
(4.09091 -8.16908e-14 0)
(4.09091 -1.72363e-14 0)
(4.09091 2.20705e-15 0)
(4.09091 3.63829e-14 0)
(4.09091 2.36841e-14 0)
(4.09091 5.58563e-14 0)
(4.09091 5.86035e-14 0)
(4.09091 5.66565e-14 0)
(4.09091 6.97403e-14 0)
(4.09091 -7.35794e-15 0)
(4.09091 1.61628e-14 0)
(4.09091 2.89917e-14 0)
(4.09091 -8.2721e-14 0)
(4.09091 -1.62375e-13 0)
(4.09091 -1.63605e-13 0)
(4.09091 -1.50256e-13 0)
(4.09091 -4.2644e-14 0)
(4.09091 2.23005e-14 0)
(4.09091 2.33107e-14 0)
(4.09091 4.06804e-14 0)
(4.09091 5.55796e-14 0)
(4.09091 6.11406e-14 0)
(4.09091 7.79268e-14 0)
(4.09091 5.76866e-14 0)
(4.09091 2.96918e-14 0)
(4.09091 -1.79798e-14 0)
(4.09091 2.1037e-14 0)
(4.09091 7.76667e-14 0)
(4.09091 6.30109e-14 0)
(4.09091 3.30857e-14 0)
(4.09091 1.23455e-14 0)
(4.09091 5.19423e-15 0)
(4.09091 2.10136e-14 0)
(4.09091 7.91103e-14 0)
(4.09091 6.64615e-14 0)
(4.09091 9.31394e-14 0)
(4.09091 1.10119e-13 0)
(4.09091 4.57079e-14 0)
(4.09091 2.59845e-14 0)
(4.09091 2.37441e-14 0)
(4.09091 1.54893e-14 0)
(4.09091 1.3729e-14 0)
(4.09091 4.91918e-14 0)
(4.09091 6.60481e-14 0)
(4.09091 7.19824e-14 0)
(4.09091 9.17692e-14 0)
(4.09091 7.82902e-14 0)
(4.09091 1.01888e-13 0)
(4.09091 1.26257e-13 0)
(4.09091 -1.38424e-14 0)
(4.09091 -1.12786e-14 0)
(4.09091 -6.1804e-14 0)
(4.09091 -9.61599e-14 0)
(4.09091 -1.22341e-13 0)
(4.09091 -1.44455e-13 0)
(4.09091 -8.72784e-14 0)
(4.09091 -2.54044e-14 0)
(4.09091 -1.52226e-14 0)
(4.09091 6.01237e-14 0)
(4.09091 1.23661e-13 0)
(4.09091 1.74283e-13 0)
(4.09091 1.98578e-13 0)
(4.09091 1.39421e-13 0)
(4.09091 9.89471e-14 0)
(4.09091 4.48811e-14 0)
(4.09091 -4.25307e-14 0)
(4.09091 -7.88403e-14 0)
(4.09091 -5.63331e-14 0)
(4.09091 -5.37526e-14 0)
(4.09091 -6.38577e-14 0)
(4.09091 -1.20821e-14 0)
(4.09091 1.32056e-14 0)
(4.09091 6.7845e-15 0)
(4.09091 -2.50577e-14 0)
(4.09091 -5.34159e-14 0)
(4.09091 -1.21514e-13 0)
(4.09091 -1.27999e-13 0)
(4.09091 -7.59464e-15 0)
(4.09091 1.58874e-13 0)
(4.09091 2.38435e-13 0)
(4.09091 1.96231e-13 0)
(4.09091 1.3269e-13 0)
(4.09091 1.63522e-13 0)
(4.09091 1.83725e-13 0)
(4.09091 1.97164e-13 0)
(4.09091 1.83438e-13 0)
(4.09091 1.60538e-13 0)
(4.09091 1.28959e-13 0)
(4.09091 9.02593e-14 0)
(4.09091 -9.43496e-15 0)
(4.09091 -3.12621e-14 0)
(4.09091 -1.36057e-14 0)
(4.09091 7.52663e-14 0)
(4.09091 9.73235e-14 0)
(4.09091 4.75715e-14 0)
(4.09091 3.51927e-14 0)
(4.09091 2.16837e-14 0)
(4.09091 -1.3739e-14 0)
(4.09091 -4.4201e-14 0)
(4.09091 5.14489e-14 0)
(4.09091 1.3501e-13 0)
(4.09091 1.46272e-13 0)
(4.09091 1.55554e-13 0)
(4.09091 1.89309e-13 0)
(4.09091 1.43661e-13 0)
(4.09091 1.00571e-13 0)
(4.09091 7.19891e-14 0)
(4.09091 9.99839e-15 0)
(4.09091 5.11355e-14 0)
(4.09091 8.99755e-14 0)
(4.09091 6.30842e-14 0)
(4.09091 -3.2539e-14 0)
(4.09091 -8.39512e-14 0)
(4.09091 -1.29929e-13 0)
(4.09091 -7.59431e-14 0)
(4.09091 -6.9522e-14 0)
(4.09091 -8.05872e-14 0)
(4.09091 -5.85601e-14 0)
(4.09091 5.02253e-14 0)
(4.09091 1.02974e-13 0)
(4.09091 1.1862e-13 0)
(4.09091 4.35709e-14 0)
(4.09091 3.34591e-14 0)
(4.09091 2.43009e-14 0)
(4.09091 -1.64195e-14 0)
(4.09091 -2.19038e-14 0)
(4.09091 2.22705e-14 0)
(4.09091 9.75668e-14 0)
(4.09091 9.75954e-14 0)
(4.09091 5.43427e-16 0)
(4.09091 -5.26758e-15 0)
(4.09091 4.28274e-14 0)
(4.09091 1.23615e-13 0)
(4.09091 1.21714e-13 0)
(4.09091 1.35873e-13 0)
(4.09091 1.20918e-13 0)
(4.09091 8.24142e-14 0)
(4.09091 1.54693e-14 0)
(4.09091 -7.94804e-15 0)
(4.09091 -2.42042e-14 0)
(4.09091 -8.80652e-14 0)
(4.09091 -4.37342e-14 0)
(4.09091 3.04219e-14 0)
(4.09091 9.37462e-14 0)
(4.09091 1.38531e-13 0)
(4.09091 1.58427e-13 0)
(4.09091 1.555e-13 0)
(4.09091 1.41678e-13 0)
(4.09091 6.50679e-14 0)
(4.09091 5.49362e-14 0)
(4.09091 1.77597e-14 0)
(4.09091 -7.85169e-14 0)
(4.09091 -1.62825e-13 0)
(4.09091 -1.52756e-13 0)
(4.09091 -1.43098e-13 0)
(4.09091 -8.80752e-14 0)
(4.09091 -9.03823e-14 0)
(4.09091 -6.36843e-14 0)
(4.09091 -7.87836e-14 0)
(4.09091 -1.3467e-13 0)
(4.09091 -1.18594e-13 0)
(4.09091 -1.64508e-13 0)
(4.09091 -1.60528e-13 0)
(4.09091 -1.21538e-13 0)
(4.09091 -4.40276e-14 0)
(4.09091 -2.75681e-14 0)
(4.09091 -1.44592e-14 0)
(4.09091 3.69764e-14 0)
(4.09091 1.54089e-13 0)
(4.09091 1.78164e-14 0)
(4.09091 1.28689e-15 0)
(4.09091 -3.79299e-14 0)
(4.09091 -5.2289e-14 0)
(4.09091 -3.40826e-14 0)
(4.09091 5.40593e-14 0)
(4.09091 1.29092e-13 0)
(4.09091 1.82041e-13 0)
(4.09091 1.40641e-13 0)
(4.09091 1.95834e-14 0)
(4.09091 -2.10036e-15 0)
(4.09091 -8.44579e-14 0)
(4.09091 -1.20511e-13 0)
(4.09091 -8.15507e-14 0)
(4.09091 -5.24657e-14 0)
(4.09091 -2.56078e-14 0)
(4.09091 1.86766e-14 0)
(4.09091 1.24255e-14 0)
(4.09091 5.68431e-15 0)
(4.09091 -1.5426e-14 0)
(4.09091 -1.04318e-14 0)
(4.09091 -7.99471e-15 0)
(4.09091 -2.34574e-14 0)
(4.09091 -2.41175e-14 0)
(4.09091 -1.94734e-14 0)
(4.09091 -3.49927e-14 0)
(4.09091 9.57165e-15 0)
(4.09091 4.52245e-14 0)
(4.09091 5.80067e-14 0)
(4.09091 -2.32874e-14 0)
(4.09091 -7.70133e-14 0)
(4.09091 -1.32149e-13 0)
(4.09091 -1.28102e-13 0)
(4.09091 -7.36861e-14 0)
(4.09091 -6.22207e-14 0)
(4.09091 3.13954e-14 0)
(4.09091 7.73734e-14 0)
(4.09091 6.86885e-14 0)
(4.09091 4.03036e-14 0)
(4.09091 6.67061e-14 0)
(4.09091 -2.12703e-15 0)
(4.09091 -3.40059e-15 0)
(4.09091 -8.82886e-14 0)
(4.09091 -1.43515e-13 0)
(4.09091 -1.27279e-13 0)
(4.09091 -2.29706e-14 0)
(4.09091 3.01919e-14 0)
(4.09091 5.85801e-14 0)
(4.09091 1.38167e-13 0)
(4.09091 9.93638e-14 0)
(4.09091 1.08412e-13 0)
(4.09091 7.68333e-14 0)
(4.09091 -1.3569e-15 0)
(4.09091 -6.82785e-15 0)
(4.09091 -7.51463e-15 0)
(4.09091 -4.04403e-15 0)
(4.09091 8.02805e-15 0)
(4.09091 2.35141e-14 0)
(4.09091 1.08585e-14 0)
(4.09091 3.22822e-14 0)
(4.09091 4.75582e-14 0)
(4.09091 7.47129e-14 0)
(4.09091 1.11006e-13 0)
(4.09091 1.63128e-13 0)
(4.09091 1.24458e-13 0)
(4.09091 7.42695e-14 0)
(4.09091 -1.63762e-14 0)
(4.09091 -4.50978e-14 0)
(4.09091 -6.43178e-14 0)
(4.09091 -6.55813e-14 0)
(4.09091 -1.07792e-13 0)
(4.09091 -1.1857e-13 0)
(4.09091 -8.02172e-14 0)
(4.09091 -3.29524e-14 0)
(4.09091 4.33875e-14 0)
(4.09091 -2.72047e-14 0)
(4.09091 -4.07704e-14 0)
(4.09091 -3.34724e-14 0)
(4.09091 -1.21721e-13 0)
(4.09091 -1.47372e-13 0)
(4.09091 1.67196e-14 0)
(4.09091 5.69032e-14 0)
(4.09091 5.72032e-14 0)
(4.09091 1.33256e-14 0)
(4.09091 -1.951e-14 0)
(4.09091 -6.60981e-14 0)
(4.09091 -8.09673e-14 0)
(4.09091 -5.70799e-14 0)
(4.09091 5.33325e-14 0)
(4.09091 1.70599e-13 0)
(4.09091 1.93643e-13 0)
(4.09091 2.71527e-13 0)
(4.09091 2.08843e-13 0)
(4.09091 1.9318e-13 0)
(4.09091 1.65032e-13 0)
(4.09091 7.84869e-14 0)
(4.09091 8.54648e-14 0)
(4.09091 1.25865e-13 0)
(4.09091 9.04756e-14 0)
(4.09091 4.51945e-14 0)
(4.09091 -8.04806e-15 0)
(4.09091 1.59528e-14 0)
(4.09091 1.06105e-13 0)
(4.09091 1.08055e-13 0)
(4.09091 3.83099e-14 0)
(4.09091 -7.13457e-16 0)
(4.09091 -2.86183e-14 0)
(4.09091 -1.09849e-13 0)
(4.09091 -9.62966e-14 0)
(4.09091 -6.51713e-14 0)
(4.09091 -6.56547e-14 0)
(4.09091 -9.87337e-14 0)
(4.09091 -1.11533e-13 0)
(4.09091 -8.6705e-14 0)
(4.09091 -1.08492e-13 0)
(4.09091 -1.62328e-13 0)
(4.09091 -1.74724e-13 0)
(4.09091 -1.71203e-13 0)
(4.09091 -1.85462e-13 0)
(4.09091 -2.27694e-13 0)
(4.09091 -2.14037e-15 0)
(4.09091 5.14689e-14 0)
(4.09091 7.86903e-14 0)
(4.09091 8.69584e-14 0)
(4.09091 9.14925e-14 0)
(4.09091 7.37727e-14 0)
(4.09091 4.14572e-14 0)
(4.09091 2.24505e-14 0)
(4.09091 1.96234e-14 0)
(4.09091 7.44462e-14 0)
(4.09091 1.40591e-13 0)
(4.09091 1.66559e-13 0)
(4.09091 1.88619e-13 0)
(4.09091 1.5535e-13 0)
(4.09091 9.25326e-14 0)
(4.09091 6.89619e-14 0)
(4.09091 6.49279e-14 0)
(4.09091 5.00886e-14 0)
(4.09091 1.21694e-13 0)
(4.09091 6.48545e-14 0)
(4.09091 6.01137e-14 0)
(4.09091 4.76949e-14 0)
(4.09091 6.02304e-14 0)
(4.09091 8.52847e-14 0)
(4.09091 1.45728e-13 0)
(4.09091 1.98228e-13 0)
(4.09091 1.87699e-13 0)
(4.09091 2.07536e-14 0)
(4.09091 -4.0407e-14 0)
(4.09091 -5.82001e-14 0)
(4.09091 -5.52129e-14 0)
(4.09091 -1.56597e-13 0)
(4.09091 -2.00558e-13 0)
(4.09091 -1.7124e-13 0)
(4.09091 -1.17167e-13 0)
(4.09091 -1.06412e-13 0)
(4.09091 -1.1542e-13 0)
(4.09091 -1.36674e-13 0)
(4.09091 -1.44682e-13 0)
(4.09091 -1.69709e-13 0)
(4.09091 -3.26256e-14 0)
(4.09091 -3.81199e-14 0)
(4.09091 -2.9195e-14 0)
(4.09091 4.02403e-15 0)
(4.09091 5.90102e-15 0)
(4.09091 4.73282e-14 0)
(4.09091 4.90918e-14 0)
(4.09091 4.40376e-14 0)
(4.09091 1.1322e-14 0)
(4.09091 1.87566e-14 0)
(4.09091 4.94019e-14 0)
(4.09091 6.41277e-14 0)
(4.09091 -4.08737e-15 0)
(4.09091 -2.4811e-14 0)
(4.09091 -6.33309e-14 0)
(4.09091 -5.53429e-16 0)
(4.09091 -1.62261e-14 0)
(4.09091 -1.84965e-14 0)
(4.09091 4.79083e-15 0)
(4.09091 -3.51527e-14 0)
(4.09091 -4.83183e-14 0)
(4.09091 -7.32326e-14 0)
(4.09091 -1.24998e-13 0)
(4.09091 -5.70565e-14 0)
(4.09091 -6.40444e-15 0)
(4.09091 6.45945e-14 0)
(4.09091 3.28823e-14 0)
(4.09091 -1.00411e-13 0)
(4.09091 -1.69626e-13 0)
(4.09091 -1.45849e-13 0)
(4.09091 -9.68767e-14 0)
(4.09091 -2.22038e-14 0)
(4.09091 2.86716e-14 0)
(4.09091 -5.55029e-14 0)
(4.09091 -8.58082e-14 0)
(4.09091 -5.20156e-14 0)
(4.09091 -3.6513e-14 0)
(4.09091 -1.1642e-14 0)
(4.09091 -3.74765e-14 0)
(4.09091 -6.76271e-14 0)
(4.09091 4.21406e-15 0)
(4.09091 9.33495e-16 0)
(4.09091 -1.41058e-14 0)
(4.09091 -6.63748e-14 0)
(4.09091 -1.1405e-13 0)
(4.09091 -1.06202e-13 0)
(4.09091 -4.38976e-14 0)
(4.09091 -2.62612e-14 0)
(4.09091 -7.97738e-14 0)
(4.09091 -1.1769e-13 0)
(4.09091 -1.20331e-13 0)
(4.09091 -1.39864e-13 0)
(4.09091 -2.47709e-13 0)
(4.09091 -2.47593e-13 0)
(4.09091 -2.3201e-13 0)
(4.09091 -1.65675e-13 0)
(4.09091 -1.38017e-13 0)
(4.09091 -1.24882e-13 0)
(4.09091 -1.51243e-13 0)
(4.09091 -1.41374e-13 0)
(4.09091 -1.65062e-13 0)
(4.09091 -2.13143e-13 0)
(4.09091 -2.43665e-13 0)
(4.09091 -1.21921e-13 0)
(4.09091 -9.73568e-14 0)
(4.09091 -8.93721e-14 0)
(4.09091 -1.1424e-13 0)
(4.09091 -1.78594e-13 0)
(4.09091 -1.65315e-13 0)
(4.09091 -1.04951e-13 0)
(4.09091 4.36742e-15 0)
(4.09091 5.13389e-14 0)
(4.09091 9.4483e-14 0)
(4.09091 9.67734e-14 0)
(4.09091 6.32843e-14 0)
(4.09091 7.68766e-14 0)
(4.09091 4.29841e-14 0)
(4.09091 9.99839e-15 0)
(4.09091 2.42342e-14 0)
(4.09091 8.14975e-14 0)
(4.09091 1.5696e-14 0)
(4.09091 1.19587e-14 0)
(4.09091 1.25122e-14 0)
(4.09091 2.26939e-14 0)
(4.09091 2.38675e-14 0)
(4.09091 7.55797e-15 0)
(4.09091 -6.60214e-14 0)
(4.09091 -1.49536e-13 0)
(4.09091 -1.98854e-13 0)
(4.09091 -2.32307e-13 0)
(4.09091 -2.39835e-13 0)
(4.09091 -2.76524e-13 0)
(4.09091 -2.00598e-13 0)
(4.09091 -1.76857e-13 0)
(4.09091 -1.70369e-13 0)
(4.09091 -1.04031e-13 0)
(4.09091 -3.03952e-14 0)
(4.09091 -4.22206e-14 0)
(4.09091 -1.07702e-13 0)
(4.09091 -5.47395e-14 0)
(4.09091 -5.09755e-14 0)
(4.09091 -7.65866e-14 0)
(4.09091 -9.72401e-14 0)
(4.09091 -8.18708e-14 0)
(4.09091 -7.742e-14 0)
(4.09091 -8.01938e-14 0)
(4.09091 -5.44961e-14 0)
(4.09091 1.7133e-14 0)
(4.09091 4.29774e-14 0)
(4.09091 -3.42026e-14 0)
(4.09091 -9.79336e-14 0)
(4.09091 -7.88203e-14 0)
(4.09091 -8.47013e-14 0)
(4.09091 -3.89667e-14 0)
(4.09091 5.85334e-14 0)
(4.09091 -3.15955e-14 0)
(4.09091 -9.49464e-14 0)
(4.09091 -1.07765e-13 0)
(4.09091 -6.97487e-14 0)
(4.09091 -2.62383e-14 0)
(4.09091 -2.29706e-15 0)
(4.09091 -1.55994e-14 0)
(4.09091 9.86837e-16 0)
(4.09091 7.07589e-14 0)
(4.09091 7.13223e-14 0)
(4.09091 -1.45692e-15 0)
(4.09091 -9.84237e-14 0)
(4.09091 -1.50113e-13 0)
(4.09091 -1.03061e-13 0)
(4.09091 -8.88987e-14 0)
(4.09091 -6.48645e-14 0)
(4.09091 -4.8525e-14 0)
(4.09091 -8.86686e-14 0)
(4.09091 -1.13353e-13 0)
(4.09091 -1.5312e-13 0)
(4.09091 -2.90554e-13 0)
(4.09091 -3.00572e-13 0)
(4.09091 -2.90877e-13 0)
(4.09091 -2.21832e-13 0)
(4.09091 -1.63678e-13 0)
(4.09091 -1.1339e-13 0)
(4.09091 -9.96005e-14 0)
(4.09091 -1.30483e-13 0)
(4.09091 -1.40341e-13 0)
(4.09091 -1.26665e-13 0)
(4.09091 -1.17897e-13 0)
(4.09091 -8.74151e-14 0)
(4.09091 -1.02458e-13 0)
(4.09091 -1.22988e-13 0)
(4.09091 -1.48302e-13 0)
(4.09091 -1.5602e-13 0)
(4.09091 -1.50013e-13 0)
(4.09091 -1.08595e-13 0)
(4.09091 -8.40212e-14 0)
(4.09091 -1.06532e-13 0)
(4.09091 -1.84105e-13 0)
(4.09091 -1.70773e-13 0)
(4.09091 -8.43546e-14 0)
(4.09091 -5.04587e-14 0)
(4.09091 -9.84373e-14 0)
(4.09091 -1.11919e-14 0)
(4.09091 -3.64063e-15 0)
(4.09091 -5.94103e-15 0)
(4.09091 2.42375e-15 0)
(4.09091 2.08369e-15 0)
(4.09091 -3.50494e-14 0)
(4.09091 -4.38076e-14 0)
(4.09091 -5.85768e-15 0)
(4.09091 5.54462e-14 0)
(4.09091 2.40708e-14 0)
(4.09091 -2.91717e-14 0)
(4.09091 -1.72396e-14 0)
(4.09091 -3.90867e-14 0)
(4.09091 -4.57412e-14 0)
(4.09091 -2.90684e-14 0)
(4.09091 -1.20587e-13 0)
(4.09091 -2.45792e-13 0)
(4.09091 -2.21108e-13 0)
(4.09091 -1.61825e-13 0)
(4.09091 -1.23485e-13 0)
(4.09091 -2.5231e-14 0)
(4.09091 4.71748e-15 0)
(4.09091 -8.96155e-15 0)
(4.09091 -5.87535e-14 0)
(4.09091 -1.26085e-13 0)
(4.09091 -2.96745e-13 0)
(4.09091 -3.24843e-13 0)
(4.09091 -2.78508e-13 0)
(4.09091 -2.38968e-13 0)
(4.09091 -1.377e-13 0)
(4.09091 -1.07895e-13 0)
(4.09091 -3.37025e-14 0)
(4.09091 1.47759e-14 0)
(4.09091 -1.16397e-13 0)
(4.09091 -1.73507e-13 0)
(4.09091 -1.80414e-13 0)
(4.09091 -9.4843e-14 0)
(4.09091 -8.00605e-14 0)
(4.09091 -1.19837e-13 0)
(4.09091 -1.47479e-13 0)
(4.09091 -4.87751e-15 0)
(4.09091 -1.939e-14 0)
(4.09091 -3.62863e-14 0)
(4.09091 -5.33692e-14 0)
(4.09091 -1.28189e-14 0)
(4.09091 -4.79416e-15 0)
(4.09091 4.58746e-15 0)
(4.09091 5.34426e-15 0)
(4.09091 2.32173e-14 0)
(4.09091 -1.34557e-14 0)
(4.09091 -9.51898e-14 0)
(4.09091 -9.94572e-14 0)
(4.09091 -6.02271e-14 0)
(4.09091 -2.48843e-14 0)
(4.09091 -5.50695e-14 0)
(4.09091 -9.22959e-14 0)
(4.09091 -9.40762e-14 0)
(4.09091 -9.0829e-14 0)
(4.09091 -1.09526e-13 0)
(4.09091 -1.03841e-13 0)
(4.09091 5.23557e-14 0)
(4.09091 1.93113e-13 0)
(4.09091 1.9096e-13 0)
(4.09091 5.43961e-14 0)
(4.09091 -1.7318e-13 0)
(4.09091 -2.76538e-13 0)
(4.09091 -3.72478e-13 0)
(4.09091 -2.73857e-13 0)
(4.09091 -9.81936e-14 0)
(4.09091 -4.19906e-14 0)