/*--------------------------------*- C++ -*----------------------------------*\
| =========                 |                                                 |
| \\      /  F ield         | OpenFOAM: The Open Source CFD Toolbox           |
|  \\    /   O peration     | Version:  2206                                  |
|   \\  /    A nd           | Website:  www.openfoam.com                      |
|    \\/     M anipulation  |                                                 |
\*---------------------------------------------------------------------------*/
FoamFile
{
    version     2.0;
    format      ascii;
    arch        "LSB;label=32;scalar=64";
    class       volScalarField;
    location    "0.14";
    object      T;
}
// * * * * * * * * * * * * * * * * * * * * * * * * * * * * * * * * * * * * * //

dimensions      [0 0 0 1 0 0 0];

internalField   nonuniform List<scalar> 
75
(
1
1
1
1
1
1
1
1
1
1
1
1
1
1
1
1
1
1
1
1
1
1
1
1
1
1.07367
1.17772
1.28908
1.40814
1.52729
1.65087
1.75584
1.85069
1.90967
1.88433
1.00002
0.999794
1.01313
1.04117
1.11049
1.19599
1.32141
1.41646
1.53148
1.63932
0.999989
0.999966
0.999834
1.00017
1.00004
1.00199
1.01922
1.08478
1.24174
1.64074
1
1
0.999981
0.999981
0.999935
0.999944
0.999901
1.0001
1.01455
1.42945
1
1
1
0.999998
0.999989
0.999981
0.999934
0.99991
1.00009
1.1287
)
;

boundaryField
{
    inlet
    {
        type            fixedValue;
        value           uniform 1;
    }
    outlet
    {
        type            zeroGradient;
    }
    bottom
    {
        type            symmetryPlane;
    }
    top
    {
        type            symmetryPlane;
    }
    obstacle
    {
        type            zeroGradient;
    }
    defaultFaces
    {
        type            empty;
    }
}


// ************************************************************************* //
