/*--------------------------------*- C++ -*----------------------------------*\
| =========                 |                                                 |
| \\      /  F ield         | OpenFOAM: The Open Source CFD Toolbox           |
|  \\    /   O peration     | Version:  2206                                  |
|   \\  /    A nd           | Website:  www.openfoam.com                      |
|    \\/     M anipulation  |                                                 |
\*---------------------------------------------------------------------------*/
FoamFile
{
    version     2.0;
    format      ascii;
    arch        "LSB;label=32;scalar=64";
    class       volScalarField;
    location    "0.2";
    object      p;
}
// * * * * * * * * * * * * * * * * * * * * * * * * * * * * * * * * * * * * * //

dimensions      [1 -1 -2 0 0 0 0];

internalField   nonuniform List<scalar> 
75
(
1
1
1
1
1
1
1
1
1
1
1
1
1
1
1
1
1
1
1
1
1
1
1
1
1
1.28535
1.74921
2.32455
2.94696
3.53412
4.05662
3.99493
3.68664
3.29485
3.00458
1.00983
1.06237
1.19297
1.46114
1.84909
2.47105
2.80162
3.08443
3.14964
3.10006
1.00004
1.00006
1.00372
1.02661
1.12965
1.46647
2.25561
3.14593
3.1747
3.63459
1
0.999998
1.00002
0.999913
1.00272
1.0329
1.33981
2.34073
2.81974
4.50961
1
0.999999
0.999997
0.999961
0.99991
1.00024
1.03008
1.38624
2.94388
6.08765
)
;

boundaryField
{
    inlet
    {
        type            fixedValue;
        value           uniform 1;
    }
    outlet
    {
        type            zeroGradient;
    }
    bottom
    {
        type            symmetryPlane;
    }
    top
    {
        type            symmetryPlane;
    }
    obstacle
    {
        type            zeroGradient;
    }
    defaultFaces
    {
        type            empty;
    }
}


// ************************************************************************* //
