/*--------------------------------*- C++ -*----------------------------------*\
| =========                 |                                                 |
| \\      /  F ield         | OpenFOAM: The Open Source CFD Toolbox           |
|  \\    /   O peration     | Version:  2206                                  |
|   \\  /    A nd           | Website:  www.openfoam.com                      |
|    \\/     M anipulation  |                                                 |
\*---------------------------------------------------------------------------*/
FoamFile
{
    version     2.0;
    format      ascii;
    arch        "LSB;label=32;scalar=64";
    class       volScalarField;
    location    "0.16";
    object      p;
}
// * * * * * * * * * * * * * * * * * * * * * * * * * * * * * * * * * * * * * //

dimensions      [1 -1 -2 0 0 0 0];

internalField   nonuniform List<scalar> 
4800
(
1
1
1
1
1
1
1
1
1
1
1
1
1
1
1
1
1
1
1
1
1
1
1
1
1
1
1
1
1
1
1
1
1
1
1
1
1
1
1
1
1
1
1
1
1
1
1
1
1
1
1
1
1
1
1
1
1
1
1
1
1
1
1
1
1
1
1
1
1
1
1
1
1
1
1
1
1
1
1
1
1
1
1
1
1
1
1
1
1
1
1
1
1
1
1
1
1
1
1
1
1
1
1
1
1
1
1
1
1
1
1
1
1
1
1
1
1
1
1
1
1
1
1
1
1
1
1
1
1
1
1
1
1
1
1
1
1
1
1
1
1
1
1
1
1
1
1
1
1
1
1
1
1
1
1
1
1
1
1
1
1
1
1
1
1
1
1
1
1
1
1
1
1
1
1
1
1
1
1
1
1
1
1
1
1
1
1
1
1
1
1
1
1
1
1
1
1
1
1
1
1
1
1
1
1
1
1
1
1
1
1
1
1
1
1
1
1
1
1
1
1
1
1
1
1
1
1
1
1
1
1
1
1
1
1
1
1
1
1
1
1
1
1
1
1
1
1
1
1
1
1
1
1
1
1
1
1
1
1
1
1
1
1
1
1
1
1
1
1
1
1
1
1
1
1
1
1
1
1
1
1
1
1
1
1
1
1
1
1
1
1
1
1
1
1
1
1
1
1
1
1
1
1
1
1
1
1
1
1
1
1
1
1
1
1
1
1
1
1
1
1
1
1
1
1
1
1
1
1
1
1
1
1
1
1
1
1
1
1
1
1
1
1
1
1
1
1
1
1
1
1
1
1
1
1
1
1
1
1
1
1
1
1
1
1
1
1
1
1
1
1
1
1
1
1
1
1
1
1
1
1
1
1
1
1
1
1
1
1
1
1
1
1
1
1
1
1
1
1
1
1
1
1
1
1
1
1
1
1
1
1
1
1
1
1
1
1
1
1
1
1
1
1
1
1
1
1
1
1
1
1
1
1
1
1
1
1
1
1
1
1
1
1
1
1
1
1
1
1
1
1
1
1
1
1
1
1
1
1
1
1
1
1
1
1
1
1
1
1
1
1
1
1
1
1
1
1
1
1
1
1
1
1
1
1
1
1
1
1
1
1
1
1
1
1
1
1
1
1
1
1
1
1
1
1
1
1
1
1
1
1
1
1
1
1
1
1
1
1
1
1
1
1
1
1
1
1
1
1
1
1
1
1
1
1
1
1
1
1
1
1
1
1
1
1
1
1
1
1
1
1
1
1
1
1
1
1
1
1
1
1
1
1
1
1
1
1
1
1
1
1
1
1
1
1
1
1
1
1
1
1
1
1
1
1
1
1
1
1
1
1
1
1
1
1
1
1
1
1
1
1
1
1
1
1
1
1
1
1
1
1
1
1
1
1
1
1
1
1
1
1
1
1
1
1
1
1
1
1
1
1
1
1
1
1
1
1
1
1
1
1
1
1
1
1
1
1
1
1
1
1
1
1
1
1
1
1
1
1
1
1
1
1
1
1
1
1
1
1
1
1
1
1
1
1
1
1
1
1
1
1
1
1
1
1
1
1
1
1
1
1
1
1
1
1
1
1
1
1
1
1
1
1
1
1
1
1
1
1
1
1
1
1
1
1
1
1
1
1
1
1
1
1
1
1
1
1
1
1
1
1
1
1
1
1
1
1
1
1
1
1
1
1
1
1
1
1
1
1
1
1
1
1
1
1
1
1
1
1
1
1
1
1
1
1
1
1
1
1
1
1
1
1
1
1
1
1
1
1
1
1
1
1
1
1
1
1
1
1
1
1
1
1
1
1
1
1
1
1
1
1
1
1
1
1
1
1
1
1
1
1
1
1
1
1
1
1
1
1
1
1
1
1
1
1
1
1
1
1
1
1
1
1
1
1
1
1
1
1
1
1
1
1
1
1
1
1
1
1
1
1
1
1
1
1
1
1
1
1
1
1
1
1
1
1
1
1
1
1
1
1
1
1
1
1
1
1
1
1
1
1
1
1
1
1
1
1
1
1
1
1
1
1
1
1
1
1
1
1
1
1
1
1
1
1
1
1
1
1
1
1
1
1
1
1
1
1
1
1
1
1
1
1
1
1
1
1
1
1
1
1
1
1
1
1
1
1
1
1
1
1
1
1
1
1
1
1
1
1
1
1
1
1
1
1
1
1
1
1
1
1
1
1
1
1
1
1
1
1
1
1
1
1
1
1
1
1
1
1
1
1
1
1
1
1
1
1
1
1
1
1
1
1
1
1
1
1
1
1
1
1
1
1
1
1
1
1
1
1
1
1
1
1
1
1
1
1
1
1
1
1
1
1
1
1
1
1
1
1
1
1
1
1
1
1
1
1
1
1
1
1
1
1
1
1
1
1
1
1
1
1
1
1
1
1
1
1
1
1
1
1
1
1
1
1
1
1
1
1
1
1
1
1
1
1
1
1
1
1
1
1
1
1
1
1
1
1
1
1
1
1
1
1
1
1
1
1
1
1
1
1
1
1
1
1
1
1
1
1
1
1
1
1
1
1
1
1
1
1
1
1
1
1
1
1
1
1
1
1
1
1
1
1
1
1
1
1
1
1
1
1
1
1
1
1
1
1
1
1
1
1
1
1
1
1
1
1
1
1
1
1
1
1
1
1
1
1
1
1
1
1
1
1
1
1
1
1
1
1
1
1
1
1
1
1
1
1
1
1
1
1
1
1
1
1
1
1
1
1
1
1
1
1
1
1
1
1
1
1
1
1
1
1
1
1
1
1
1
1
1
1
1
1
1
1
1
1
1
1
1
1
1
1
1
1
1
1
1
1
1
1
1
1
1
1
1
1
1
1
1
1
1
1
1
1
1
1
1
1
1
1
1
1
1
1
1
1
1
1
1
1
1
1
1
1
1
1
1
1
1
1
1
1
1
1
1
1
1
1
1
1
1
1
1
1
1
1
1
1
1
1
1
1
1
1
1
1
1
1
1
1
1
1
1
1
1
1
1
1
1
1
1
1
1
1
1
1
1
1
1
1
1
1
1
1
1
1
1
1
1
1
1
1
1
1
1
1
1
1
1
1
1
1
1
1
1
1
1
1
1
1
1
1
1
1
1
1
1
1
1
1
1
1
1
1
1
1
1
1
1
1
1
1
1
1
1
1
1
1
1
1
1
1
1
1
1
1
1
1
1
1
1
1
1
1
1
1
1
1
1
1
1
1
1
1
1
1
1
1
1
1
1
1
1
1
1
1
1
1
1
1
1
1
1
1
1
1
1
1
1
1
1
1
1
1
1
1
1
1
1
1
1
1
1
1
1
1
1
1
1
1
1
1
1
1
1
1
1
1
1
1
1
1
1
1
1
1
1
1
1
1
1
1
1
1
1
1
1
1
1
1
1
1
1
1
1
1
1
1
1
1
1
1
1
1
1
1
1
1
1
1
1
1
1
1
1
1
1
1
1
1
1
1
1
1
1
1
1
1
1
1
1
1
1
1
1
1
1
1
1
1
1
1
1
1
1
1
1
1
1
1
1
1
1
1
1
1
1
1
1
1
1
1
1
1
1
1
1
1
1
1
1
1
1
1
1
1
1
1
1
1
1
1
1
1
1
1
1
1
1
1
1
1
1
1
1
1
1
1
1
1.26577
1.67577
2.18298
2.79788
3.31241
3.8544
4.48304
4.90932
5.4464
5.82556
5.97344
6.14077
6.10609
5.96788
5.6753
5.20147
4.69639
4.45683
4.28009
4.0889
4.01253
4.02361
4.04648
4.08337
4.126
4.16578
4.22268
4.27277
4.29739
4.29262
4.28173
4.28622
4.30281
4.30923
4.30979
4.3064
4.29753
4.29231
4.30168
4.32092
4.33746
4.34277
4.34037
4.3388
4.33898
4.33894
4.33651
4.32583
4.30846
4.295
4.29035
4.29303
4.30305
4.31846
4.3334
4.34347
4.35116
4.35679
4.35944
4.3592
4.3571
4.35409
4.34982
4.34241
4.3336
4.32238
4.31141
4.30721
4.30821
4.31402
4.32584
4.34068
4.35415
4.36104
4.36386
4.36537
4.36612
4.36569
4.36503
4.36436
0.999668
1.00541
1.00596
1.03376
1.15962
1.29286
1.51578
1.85511
2.1835
2.65809
3.04421
3.53032
3.89248
4.18856
4.33328
4.39815
4.61624
4.70589
4.68676
4.56668
4.47013
4.43479
4.37096
4.32062
4.26746
4.19624
4.18736
4.20335
4.22667
4.23616
4.24459
4.26647
4.29679
4.30906
4.31069
4.30924
4.30482
4.29958
4.30283
4.30809
4.30951
4.30894
4.31209
4.32533
4.33674
4.33939
4.33827
4.32997
4.32466
4.32482
4.32242
4.32239
4.32444
4.32489
4.32198
4.31864
4.31672
4.31915
4.32432
4.33088
4.33896
4.34604
4.3492
4.35093
4.3516
4.3504
4.34472
4.33861
4.33814
4.34089
4.34463
4.34711
4.34631
4.34475
4.34289
4.34138
4.34021
4.33999
4.34127
4.34918
1
1
1
0.999999
1
1
0.999321
1.00233
1.01599
1.08232
1.22154
1.46848
1.96991
2.59694
3.42991
4.14796
4.7162
5.04865
5.01158
4.93656
4.8651
4.78708
4.67655
4.47141
4.30035
4.18216
4.16651
4.19393
4.21629
4.22088
4.23324
4.25866
4.28734
4.30524
4.31461
4.31518
4.31359
4.31385
4.31648
4.31748
4.31198
4.30113
4.29555
4.29809
4.30847
4.32032
4.32886
4.33518
4.33922
4.34057
4.3444
4.34837
4.34986
4.34659
4.33521
4.31865
4.30754
4.3013
4.30074
4.3021
4.30697
4.32007
4.33906
4.35428
4.36125
4.36239
4.36064
4.35807
4.35788
4.36034
4.36178
4.36089
4.35496
4.34493
4.3382
4.33434
4.33095
4.32759
4.32552
4.33008
1
1
1
1
1
1
1
1
1
1
1
0.999267
1.00791
1.05473
1.24051
1.74239
2.41044
3.33965
3.85757
4.25254
4.54527
4.5395
4.53926
4.60388
4.56454
4.4622
4.41089
4.38801
4.34974
4.29139
4.21602
4.1968
4.19697
4.21917
4.25487
4.28336
4.30169
4.32092
4.33627
4.33755
4.33043
4.31429
4.29759
4.28953
4.29081
4.29395
4.29834
4.3068
4.32132
4.33968
4.35775
4.36735
4.368
4.36159
4.35085
4.33924
4.32085
4.30911
4.30793
4.30765
4.3073
4.30878
4.31575
4.32898
4.34275
4.3535
4.36111
4.36574
4.36892
4.37177
4.37169
4.36865
4.36122
4.35119
4.34065
4.33459
4.33084
4.32823
4.32735
4.33082
1
1
1
1
1
1
1
1
1
1
1
1
1
1
0.999606
1.00237
1.03392
1.20479
1.68096
2.23215
3.0218
3.63266
4.23793
4.65914
4.67609
4.67523
4.65066
4.60806
4.52838
4.36946
4.22318
4.18601
4.19229
4.2233
4.24937
4.25901
4.28158
4.31067
4.32384
4.32881
4.32986
4.32881
4.32279
4.31179
4.30958
4.3072
4.30169
4.29756
4.2983
4.30506
4.31627
4.33042
4.34505
4.35467
4.35732
4.35303
4.34349
4.33465
4.32956
4.32722
4.32445
4.32253
4.3242
4.32706
4.32844
4.33075
4.33319
4.33606
4.3399
4.34573
4.3515
4.3548
4.35586
4.35363
4.34754
4.34478
4.34434
4.34385
4.34355
4.34401
1
1
1
1
1
1
1
1
1
1
1
1
1
1
1
1
1
0.999651
1.00211
1.02261
1.15468
1.57747
2.15003
2.94223
3.50252
4.02774
4.38097
4.39938
4.39741
4.42077
4.36051
4.31501
4.31738
4.32355
4.31283
4.28184
4.25191
4.24919
4.24772
4.25823
4.28192
4.30572
4.32589
4.34857
4.3506
4.34311
4.32727
4.31502
4.30075
4.29004
4.28827
4.29121
4.30317
4.31969
4.3349
4.34719
4.35494
4.35708
4.3584
4.35831
4.35551
4.35202
4.34876
4.34285
4.33531
4.32722
4.32146
4.31901
4.31848
4.32025
4.32356
4.32862
4.3359
4.34276
4.34896
4.35469
4.35865
4.35953
4.35993
4.36008
1
1
1
1
1
1
1
1
1
1
1
1
1
1
1
1
1
1
1
1
0.999717
1.00147
1.02112
1.15682
1.54066
2.05766
2.81306
3.40397
4.03957
4.37765
4.40445
4.45953
4.46452
4.44534
4.40172
4.31415
4.21598
4.19239
4.19834
4.22622
4.25343
4.2858
4.32512
4.35634
4.36451
4.36418
4.35746
4.33232
4.30534
4.2876
4.28219
4.28336
4.29039
4.29556
4.30282
4.31737
4.33436
4.3515
4.36539
4.37071
4.3694
4.36517
4.35788
4.34828
4.337
4.32588
4.31798
4.31391
4.31363
4.31601
4.3185
4.32019
4.32367
4.33046
4.33921
4.34933
4.35788
4.36212
4.3648
4.36579
1
1
1
1
1
1
1
1
1
1
1
1
1
1
1
1
1
1
1
1
1
0.999999
1
0.999771
1.00168
1.01798
1.14833
1.51279
2.03865
2.79167
3.36333
3.97604
4.26988
4.28802
4.32238
4.33089
4.29191
4.24703
4.24172
4.2413
4.25117
4.2604
4.28308
4.31089
4.33342
4.34691
4.34996
4.35494
4.35835
4.34629
4.33078
4.32213
4.31262
4.30502
4.30133
4.30176
4.30557
4.31367
4.32568
4.33744
4.34416
4.3482
4.35198
4.35387
4.35301
4.34763
4.34267
4.33685
4.33266
4.33212
4.33289
4.33324
4.33506
4.33766
4.34139
4.34665
4.3525
4.35573
4.35783
4.35715
1
1
1
1
1
1
1
1
1
1
1
1
1
1
1
1
1
1
1
1
1
1
1
0.999999
0.999996
1
0.999848
1.00215
1.02102
1.17545
1.55193
2.12272
2.83432
3.41061
4.04227
4.24065
4.3192
4.34908
4.34245
4.30956
4.27401
4.25088
4.23021
4.22418
4.22797
4.25892
4.29685
4.32822
4.3508
4.37291
4.38514
4.38639
4.38167
4.36525
4.33609
4.30648
4.29604
4.29483
4.29766
4.3037
4.30628
4.31005
4.31911
4.33156
4.34424
4.35216
4.35366
4.35435
4.3598
4.36265
4.36106
4.354
4.34326
4.34067
4.34254
4.34206
4.34147
4.34108
4.33986
4.3385
1
1
1
1
1
1
1
1
1
1
1
1
1
1
1
1
1
1
1
1
1
1
1
1
1
1
0.999998
0.999997
0.999999
0.999982
1.00372
1.03086
1.22049
1.59149
2.17758
2.8787
3.47179
4.06824
4.25175
4.24005
4.29299
4.32171
4.27951
4.22906
4.20966
4.20385
4.21526
4.23503
4.27532
4.33087
4.37204
4.38932
4.39593
4.39439
4.38314
4.36398
4.34191
4.32435
4.31078
4.3011
4.29882
4.30123
4.30595
4.31212
4.31829
4.32747
4.33758
4.3501
4.36096
4.36429
4.36264
4.35706
4.35174
4.34758
4.33962
4.3348
4.33286
4.33299
4.33327
4.33275
1
1
1
1
1
1
1
1
1
1
1
1
1
1
1
1
1
1
1
1
1
1
1
1
1
1
1
1
1
1
1
0.999958
1.00025
1.00556
1.04382
1.28559
1.69872
2.39015
3.0453
3.66162
4.12438
4.31225
4.33247
4.33188
4.30674
4.24357
4.21534
4.212
4.22152
4.25009
4.27678
4.30635
4.34042
4.35859
4.36416
4.36793
4.36855
4.37134
4.36939
4.35759
4.33714
4.31579
4.30656
4.30658
4.30937
4.31276
4.31752
4.32516
4.3368
4.34745
4.34912
4.34664
4.34379
4.34376
4.3465
4.34895
4.34809
4.34725
4.34466
4.33829
1
1
1
1
1
1
1
1
1
1
1
1
1
1
1
1
1
1
1
1
1
1
1
1
1
1
1
1
1
1
1
0.999999
0.999998
1
0.99995
1.00105
1.01038
1.08873
1.40273
1.88615
2.60029
3.24853
3.8967
4.23481
4.26863
4.27472
4.33771
4.3319
4.28998
4.26146
4.24686
4.2403
4.2475
4.25624
4.27257
4.30288
4.34085
4.37101
4.382
4.3782
4.37457
4.36904
4.35927
4.34873
4.33464
4.32028
4.31217
4.31397
4.32409
4.33036
4.33065
4.32686
4.32562
4.32868
4.33709
4.34668
4.3526
4.35373
4.35343
4.35201
1
1
1
1
1
1
1
1
1
1
1
1
1
1
1
1
1
1
1
1
1
1
1
1
1
1
1
1
1
1
1
1
1
1
0.999998
0.999998
0.999992
1
1.00308
1.02246
1.17612
1.57189
2.20261
2.92392
3.52851
4.01144
4.26316
4.34198
4.35222
4.36783
4.35267
4.30575
4.25262
4.22604
4.22382
4.23821
4.26361
4.29051
4.3316
4.36348
4.37035
4.37336
4.37278
4.36772
4.36302
4.35456
4.34499
4.33536
4.32955
4.32568
4.32105
4.31443
4.3131
4.31728
4.32449
4.33303
4.34294
4.34863
4.3519
4.35409
1
1
1
1
1
1
1
1
1
1
1
1
1
1
1
1
1
1
1
1
1
1
1
1
1
1
1
1
1
1
1
1
1
1
1
1
1
0.999999
1
0.999974
1.00053
1.00826
1.06209
1.36573
1.8937
2.5908
3.24533
3.85208
4.21284
4.32768
4.34733
4.37008
4.3731
4.34671
4.29354
4.26213
4.26117
4.26982
4.28288
4.30107
4.30558
4.31329
4.32904
4.3452
4.35523
4.35238
4.35108
4.35795
4.36386
4.36252
4.35447
4.33833
4.32251
4.31657
4.3182
4.32531
4.33524
4.3409
4.34413
4.34797
1
1
1
1
1
1
1
1
1
1
1
1
1
1
1
1
1
1
1
1
1
1
1
1
1
1
1
1
1
1
1
1
1
1
1
1
1
1
1
0.999998
0.999998
0.999993
1.00001
1.00387
1.02743
1.18461
1.66249
2.38068
3.09759
3.6633
4.0582
4.28208
4.34316
4.3632
4.36401
4.36709
4.36571
4.35329
4.32719
4.30425
4.28678
4.27704
4.28111
4.28943
4.29812
4.30967
4.32661
4.3496
4.36232
4.36509
4.36167
4.35297
4.34623
4.34216
4.34013
4.34096
4.3414
4.3406
4.33887
4.33953
1
1
1
1
1
1
1
1
1
1
1
1
1
1
1
1
1
1
1
1
1
1
1
1
1
1
1
1
1
1
1
1
1
1
1
1
1
1
1
1
1
1
0.999999
1
0.999981
1.00105
1.01631
1.10344
1.5197
2.21734
2.95717
3.50696
3.93335
4.23273
4.32553
4.34591
4.38182
4.4208
4.4268
4.40997
4.36271
4.313
4.29367
4.28533
4.27979
4.28181
4.29298
4.31169
4.32894
4.34246
4.35022
4.34638
4.34325
4.34613
4.35371
4.36019
4.35975
4.35517
4.34718
4.33712
1
1
1
1
1
1
1
1
1
1
1
1
1
1
1
1
1
1
1
1
1
1
1
1
1
1
1
1
1
1
1
1
1
1
1
1
1
1
1
1
1
1
1
1
0.999998
0.999999
0.999986
1.00028
1.01226
1.07326
1.36398
2.01893
2.88881
3.50221
3.88576
4.07679
4.23744
4.36267
4.41217
4.41345
4.39581
4.36378
4.36697
4.36788
4.34212
4.31921
4.31009
4.31176
4.31985
4.32025
4.31642
4.31177
4.3126
4.32576
4.34708
4.35435
4.35422
4.35493
4.35613
4.3481
1
1
1
1
1
1
1
1
1
1
1
1
1
1
1
1
1
1
1
1
1
1
1
1
1
1
1
1
1
1
1
1
1
1
1
1
1
1
1
1
1
1
1
1
1
1
0.999999
0.999999
0.999994
1.00011
1.00629
1.05451
1.29411
1.95992
2.98662
3.59593
3.84586
4.06961
4.25715
4.26363
4.26962
4.29935
4.35077
4.38597
4.3794
4.364
4.36617
4.37083
4.36277
4.34618
4.31801
4.29892
4.29818
4.3087
4.32514
4.33605
4.34488
4.34907
4.35179
4.34758
1
1
1
1
1
1
1
1
1
1
1
1
1
1
1
1
1
1
1
1
1
1
1
1
1
1
1
1
1
1
1
1
1
1
1
1
1
1
1
1
1
1
1
1
1
1
1
1
0.999999
0.999999
0.999994
1.00007
1.00445
1.06104
1.30799
2.00134
2.89086
3.7923
4.08076
4.13924
4.11691
4.12363
4.19758
4.2874
4.33626
4.35843
4.37975
4.39721
4.40132
4.38868
4.36653
4.34062
4.32071
4.3188
4.32413
4.32903
4.33057
4.3339
4.33816
4.33884
1
1
1
1
1
1
1
1
1
1
1
1
1
1
1
1
1
1
1
1
1
1
1
1
1
1
1
1
1
1
1
1
1
1
1
1
1
1
1
1
1
1
1
1
1
1
1
1
1
1
0.999999
0.999999
0.999994
1.00015
1.00454
1.07386
1.32561
1.98873
2.96661
3.93031
4.14029
4.14345
4.18554
4.23821
4.25384
4.24676
4.25976
4.29967
4.34641
4.3668
4.35446
4.34165
4.34135
4.34437
4.3503
4.34508
4.33398
4.3305
4.33277
4.33581
1
1
1
1
1
1
1
1
1
1
1
1
1
1
1
1
1
1
1
1
1
1
1
1
1
1
1
1
1
1
1
1
1
1
1
1
1
1
1
1
1
1
1
1
1
1
1
1
1
1
1
1
0.999999
0.999999
0.999993
1.00028
1.00509
1.07336
1.36637
2.21852
3.24422
3.87665
4.28141
4.35492
4.3608
4.29019
4.24291
4.23914
4.24863
4.27806
4.2889
4.29605
4.31772
4.35066
4.36308
4.35907
4.3469
4.33778
4.33866
4.34187
1
1
1
1
1
1
1
1
1
1
1
1
1
1
1
1
1
1
1
1
1
1
1
1
1
1
1
1
1
1
1
1
1
1
1
1
1
1
1
1
1
1
1
1
1
1
1
1
1
1
1
1
1
1
0.999999
0.999999
0.999994
1.00034
1.00785
1.13353
1.62194
2.41769
3.34847
4.10719
4.34145
4.35416
4.38622
4.38801
4.33891
4.29415
4.27593
4.27147
4.288
4.31889
4.34342
4.3464
4.33933
4.3365
4.33802
4.3421
1
1
1
1
1
1
1
1
1
1
1
1
1
1
1
1
1
1
1
1
1
1
1
1
1
1
1
1
1
1
1
1
1
1
1
1
1
1
1
1
1
1
1
1
1
1
1
1
1
1
1
1
1
1
1
1
0.999999
0.999999
0.999998
1.00141
1.02137
1.21673
1.77852
2.74152
3.60582
4.06363
4.31059
4.39019
4.39327
4.37313
4.3406
4.31755
4.32625
4.34109
4.33962
4.33741
4.32953
4.32341
4.32228
4.3288
1
1
1
1
1
1
1
1
1
1
1
1
1
1
1
1
1
1
1
1
1
1
1
1
1
1
1
1
1
1
1
1
1
1
1
1
1
1
1
1
1
1
1
1
1
1
1
1
1
1
1
1
1
1
1
1
1
1
1
0.999998
1.00003
1.00373
1.0382
1.33924
2.25543
3.17914
3.71087
4.13242
4.32131
4.31643
4.31853
4.34471
4.38264
4.39804
4.3939
4.37726
4.35501
4.33708
4.33054
4.32853
1
1
1
1
1
1
1
1
1
1
1
1
1
1
1
1
1
1
1
1
1
1
1
1
1
1
1
1
1
1
1
1
1
1
1
1
1
1
1
1
1
1
1
1
1
1
1
1
1
1
1
1
1
1
1
1
1
1
1
1
1
0.999997
1.00015
1.01132
1.1235
1.65373
2.58442
3.6505
4.04833
4.11001
4.14283
4.21338
4.29293
4.35361
4.37617
4.36575
4.35412
4.35544
4.35355
4.34281
1
1
1
1
1
1
1
1
1
1
1
1
1
1
1
1
1
1
1
1
1
1
1
1
1
1
1
1
1
1
1
1
1
1
1
1
1
1
1
1
1
1
1
1
1
1
1
1
1
1
1
1
1
1
1
1
1
1
1
1
1
1
0.999999
1.00002
1.00149
1.03862
1.25369
2.01261
3.22182
4.08118
4.21076
4.20895
4.22414
4.2602
4.30391
4.30783
4.29962
4.30738
4.32701
4.33155
1
1
1
1
1
1
1
1
1
1
1
1
1
1
1
1
1
1
1
1
1
1
1
1
1
1
1
1
1
1
1
1
1
1
1
1
1
1
1
1
1
1
1
1
1
1
1
1
1
1
1
1
1
1
1
1
1
1
1
1
1
1
1
1
0.999998
1.0002
1.00619
1.11398
1.61264
2.72391
3.76229
4.24231
4.34039
4.38654
4.37704
4.34345
4.30195
4.29171
4.30109
4.30337
1
1
1
1
1
1
1
1
1
1
1
1
1
1
1
1
1
1
1
1
1
1
1
1
1
1
1
1
1
1
1
1
1
1
1
1
1
1
1
1
1
1
1
1
1
1
1
1
1
1
1
1
1
1
1
1
1
1
1
1
1
1
1
1
1
0.999999
1.00001
1.00166
1.03776
1.40079
2.31974
3.24963
4.01579
4.35077
4.36811
4.35374
4.35007
4.36113
4.37543
4.34448
1
1
1
1
1
1
1
1
1
1
1
1
1
1
1
1
1
1
1
1
1
1
1
1
1
1
1
1
1
1
1
1
1
1
1
1
1
1
1
1
1
1
1
1
1
1
1
1
1
1
1
1
1
1
1
1
1
1
1
1
1
1
1
1
1
1
1
0.999999
1.00037
1.01609
1.17397
1.93946
3.07474
4.01883
4.08513
4.10457
4.15895
4.29809
4.40917
4.40619
1
1
1
1
1
1
1
1
1
1
1
1
1
1
1
1
1
1
1
1
1
1
1
1
1
1
1
1
1
1
1
1
1
1
1
1
1
1
1
1
1
1
1
1
1
1
1
1
1
1
1
1
1
1
1
1
1
1
1
1
1
1
1
1
1
1
1
1
0.999999
1.00006
1.00433
1.10411
1.5607
2.64097
3.92679
4.17627
4.09483
4.15721
4.28664
4.36825
1
1
1
1
1
1
1
1
1
1
1
1
1
1
1
1
1
1
1
1
1
1
1
1
1
1
1
1
1
1
1
1
1
1
1
1
1
1
1
1
1
1
1
1
1
1
1
1
1
1
1
1
1
1
1
1
1
1
1
1
1
1
1
1
1
1
1
1
1
1
1.00001
1.00161
1.03795
1.32331
2.43249
3.74188
4.00466
4.13504
4.22055
4.32397
1
1
1
1
1
1
1
1
1
1
1
1
1
1
1
1
1
1
1
1
1
1
1
1
1
1
1
1
1
1
1
1
1
1
1
1
1
1
1
1
1
1
1
1
1
1
1
1
1
1
1
1
1
1
1
1
1
1
1
1
1
1
1
1
1
1
1
1
1
1
1
1
1.00035
1.01724
1.21811
2.20422
3.45758
4.07266
4.32559
4.35681
1
1
1
1
1
1
1
1
1
1
1
1
1
1
1
1
1
1
1
1
1
1
1
1
1
1
1
1
1
1
1
1
1
1
1
1
1
1
1
1
1
1
1
1
1
1
1
1
1
1
1
1
1
1
1
1
1
1
1
1
1
1
1
1
1
1
1
1
1
1
1
1
1
1.00018
1.00778
1.21555
2.1024
3.10267
3.93746
4.35247
1
1
1
1
1
1
1
1
1
1
1
1
1
1
1
1
1
1
1
1
1
1
1
1
1
1
1
1
1
1
1
1
1
1
1
1
1
1
1
1
1
1
1
1
1
1
1
1
1
1
1
1
1
1
1
1
1
1
1
1
1
1
1
1
1
1
1
1
1
1
1
1
1
1
1.00008
1.00969
1.14291
1.79454
2.93403
4.00385
1
1
1
1
1
1
1
1
1
1
1
1
1
1
1
1
1
1
1
1
1
1
1
1
1
1
1
1
1
1
1
1
1
1
1
1
1
1
1
1
1
1
1
1
1
1
1
1
1
1
1
1
1
1
1
1
1
1
1
1
1
1
1
1
1
1
1
1
1
1
1
1
1
1
1
1.00007
1.00399
1.08232
1.56141
3.21398
1
1
1
1
1
1
1
1
1
1
1
1
1
1
1
1
1
1
1
1
1
1
1
1
1
1
1
1
1
1
1
1
1
1
1
1
1
1
1
1
1
1
1
1
1
1
1
1
1
1
1
1
1
1
1
1
1
1
1
1
1
1
1
1
1
1
1
1
1
1
1
1
1
1
1
1
1.00001
1.00221
1.04278
2.10616
1
1
1
1
1
1
1
1
1
1
1
1
1
1
1
1
1
1
1
1
1
1
1
1
1
1
1
1
1
1
1
1
1
1
1
1
1
1
1
1
1
1
1
1
1
1
1
1
1
1
1
1
1
1
1
1
1
1
1
1
1
1
1
1
1
1
1
1
1
1
1
1
1
1
1
1
1
1.00001
1.00151
1.35094
1
1
1
1
1
1
1
1
1
1
1
1
1
1
1
1
1
1
1
1
1
1
1
1
1
1
1
1
1
1
1
1
1
1
1
1
1
1
1
1
1
1
1
1
1
1
1
1
1
1
1
1
1
1
1
1
1
1
1
1
1
1
1
1
1
1
1
1
1
1
1
1
1
1
1
1
1
1
1.00005
1.06839
1
1
1
1
1
1
1
1
1
1
1
1
1
1
1
1
1
1
1
1
1
1
1
1
1
1
1
1
1
1
1
1
1
1
1
1
1
1
1
1
1
1
1
1
1
1
1
1
1
1
1
1
1
1
1
1
1
1
1
1
1
1
1
1
1
1
1
1
1
1
1
1
1
1
1
1
1
1
1
1.00817
1
1
1
1
1
1
1
1
1
1
1
1
1
1
1
1
1
1
1
1
1
1
1
1
1
1
1
1
1
1
1
1
1
1
1
1
1
1
1
1
1
1
1
1
1
1
1
1
1
1
1
1
1
1
1
1
1
1
1
1
1
1
1
1
1
1
1
1
1
1
1
1
1
1
1
1
1
1
1
1.00055
)
;

boundaryField
{
    inlet
    {
        type            fixedValue;
        value           uniform 1;
    }
    outlet
    {
        type            zeroGradient;
    }
    bottom
    {
        type            symmetryPlane;
    }
    top
    {
        type            symmetryPlane;
    }
    obstacle
    {
        type            zeroGradient;
    }
    defaultFaces
    {
        type            empty;
    }
}


// ************************************************************************* //
