/*--------------------------------*- C++ -*----------------------------------*\
| =========                 |                                                 |
| \\      /  F ield         | OpenFOAM: The Open Source CFD Toolbox           |
|  \\    /   O peration     | Version:  2206                                  |
|   \\  /    A nd           | Website:  www.openfoam.com                      |
|    \\/     M anipulation  |                                                 |
\*---------------------------------------------------------------------------*/
FoamFile
{
    version     2.0;
    format      ascii;
    arch        "LSB;label=32;scalar=64";
    class       volScalarField;
    location    "0.18";
    object      p;
}
// * * * * * * * * * * * * * * * * * * * * * * * * * * * * * * * * * * * * * //

dimensions      [1 -1 -2 0 0 0 0];

internalField   nonuniform List<scalar> 
75
(
1
1
1
1
1
1
1
1
1
1
1
1
1
1
1
1
1
1
1
1
1
1
1
1
1
1.27811
1.73384
2.33939
3.02017
3.83442
4.57346
5.31037
5.76882
5.61456
4.82593
1.00058
1.02407
1.0776
1.23663
1.48882
1.9721
2.55099
3.32161
3.86625
4.0965
0.999993
1.0001
0.999784
1.00128
1.00898
1.06523
1.25442
1.84761
3.13669
4.2642
0.999999
0.999999
0.999943
0.999914
0.999949
0.999723
1.00264
1.06138
1.5529
3.48177
1
1
0.999999
0.999983
0.99997
0.999871
0.999784
1.0001
1.05089
2.72553
)
;

boundaryField
{
    inlet
    {
        type            fixedValue;
        value           uniform 1;
    }
    outlet
    {
        type            zeroGradient;
    }
    bottom
    {
        type            symmetryPlane;
    }
    top
    {
        type            symmetryPlane;
    }
    obstacle
    {
        type            zeroGradient;
    }
    defaultFaces
    {
        type            empty;
    }
}


// ************************************************************************* //
