/*--------------------------------*- C++ -*----------------------------------*\
| =========                 |                                                 |
| \\      /  F ield         | OpenFOAM: The Open Source CFD Toolbox           |
|  \\    /   O peration     | Version:  2206                                  |
|   \\  /    A nd           | Website:  www.openfoam.com                      |
|    \\/     M anipulation  |                                                 |
\*---------------------------------------------------------------------------*/
FoamFile
{
    version     2.0;
    format      ascii;
    arch        "LSB;label=32;scalar=64";
    class       volVectorField;
    location    "0.12";
    object      U;
}
// * * * * * * * * * * * * * * * * * * * * * * * * * * * * * * * * * * * * * //

dimensions      [0 1 -1 0 0 0 0];

internalField   nonuniform List<vector> 
4800
(
(4.49495 1.44025e-15 0)
(4.49495 -2.96151e-14 0)
(4.49495 -2.17171e-14 0)
(4.49495 5.78767e-15 0)
(4.49495 6.37377e-14 0)
(4.49495 1.08395e-13 0)
(4.49495 1.01664e-13 0)
(4.49495 5.70932e-14 0)
(4.49495 -8.66483e-15 0)
(4.49495 -9.97172e-15 0)
(4.49495 -1.29322e-14 0)
(4.49495 -1.79964e-14 0)
(4.49495 -2.98518e-14 0)
(4.49495 4.28474e-14 0)
(4.49495 7.20324e-14 0)
(4.49495 7.65199e-14 0)
(4.49495 4.6298e-14 0)
(4.49495 2.61312e-14 0)
(4.49495 8.84153e-15 0)
(4.49495 -1.88032e-15 0)
(4.49495 2.43875e-14 0)
(4.49495 4.87484e-14 0)
(4.49495 1.72596e-14 0)
(4.49495 1.48326e-14 0)
(4.49495 -2.22105e-14 0)
(4.49495 -3.18122e-14 0)
(4.49495 -1.26322e-14 0)
(4.49495 9.08157e-15 0)
(4.49495 1.13853e-14 0)
(4.49495 3.05986e-14 0)
(4.49495 3.75932e-14 0)
(4.49495 2.00601e-14 0)
(4.49495 -6.49112e-15 0)
(4.49495 -7.5143e-14 0)
(4.49495 -8.85253e-14 0)
(4.49495 -6.25975e-14 0)
(4.49495 -4.43377e-14 0)
(4.49495 3.97069e-14 0)
(4.49495 1.572e-13 0)
(4.49495 9.90571e-14 0)
(4.49495 -1.95e-14 0)
(4.49495 -3.71664e-14 0)
(4.49495 -2.15237e-14 0)
(4.49495 -6.86785e-16 0)
(4.49495 7.41195e-14 0)
(4.49495 1.05602e-13 0)
(4.49495 1.29769e-13 0)
(4.49495 7.95671e-14 0)
(4.49495 3.75865e-14 0)
(4.49495 -8.84053e-14 0)
(4.49495 -1.65865e-13 0)
(4.49495 -1.65909e-13 0)
(4.49495 -1.1711e-13 0)
(4.49495 -1.45225e-14 0)
(4.49495 2.60978e-14 0)
(4.49495 4.6118e-14 0)
(4.49495 4.70148e-14 0)
(4.49495 4.44577e-14 0)
(4.49495 6.67849e-14 0)
(4.49495 4.54745e-14 0)
(4.49495 5.17556e-14 0)
(4.49495 5.37393e-14 0)
(4.49495 3.41559e-14 0)
(4.49495 3.42959e-14 0)
(4.49495 -2.09303e-14 0)
(4.49495 -4.74415e-15 0)
(4.49495 -1.66695e-15 0)
(4.49495 6.32376e-14 0)
(4.49495 5.58796e-14 0)
(4.49495 1.04871e-13 0)
(4.49495 1.51513e-13 0)
(4.49495 1.10732e-13 0)
(4.49495 -1.29089e-14 0)
(4.49495 -1.41661e-13 0)
(4.49495 -2.07169e-13 0)
(4.49495 -1.38401e-13 0)
(4.49495 -9.97906e-14 0)
(4.49495 1.80031e-14 0)
(4.49495 1.72827e-13 0)
(4.49495 2.31202e-13 0)
(4.49495 1.00017e-17 0)
(4.49495 1.52226e-14 0)
(4.49495 1.09386e-14 0)
(4.49495 1.10186e-14 0)
(4.49495 -3.26756e-14 0)
(4.49495 -3.74265e-14 0)
(4.49495 8.17141e-15 0)
(4.49495 5.91969e-14 0)
(4.49495 5.34159e-14 0)
(4.49495 -6.63715e-14 0)
(4.49495 -1.87629e-13 0)
(4.49495 -1.95364e-13 0)
(4.49495 -1.18724e-13 0)
(4.49495 -8.93721e-14 0)
(4.49495 -9.39129e-14 0)
(4.49495 -9.14358e-14 0)
(4.49495 -5.26758e-14 0)
(4.49495 5.67331e-14 0)
(4.49495 7.38961e-14 0)
(4.49495 1.25608e-13 0)
(4.49495 1.51043e-13 0)
(4.49495 1.06708e-13 0)
(4.49495 4.57979e-14 0)
(4.49495 -3.51761e-14 0)
(4.49495 -7.5173e-14 0)
(4.49495 -1.57361e-14 0)
(4.49495 7.1449e-14 0)
(4.49495 1.61158e-13 0)
(4.49495 1.71463e-13 0)
(4.49495 1.79544e-13 0)
(4.49495 1.39437e-13 0)
(4.49495 2.5271e-14 0)
(4.49495 -4.31408e-15 0)
(4.49495 -7.58964e-14 0)
(4.49495 -1.05775e-13 0)
(4.49495 -5.0122e-14 0)
(4.49495 7.08122e-14 0)
(4.49495 1.60818e-13 0)
(4.49495 1.69983e-13 0)
(4.49495 1.76005e-13 0)
(4.49495 1.94367e-14 0)
(4.49495 2.80615e-14 0)
(4.49495 1.24555e-14 0)
(4.49495 -2.3154e-14 0)
(4.49495 -3.80499e-14 0)
(4.49495 -2.95984e-14 0)
(4.49495 -2.16371e-14 0)
(4.49495 -2.56378e-15 0)
(4.49495 1.00584e-14 0)
(4.49495 3.00452e-14 0)
(4.49495 5.30425e-15 0)
(4.49495 -4.00236e-14 0)
(4.49495 -2.64279e-14 0)
(4.49495 5.23757e-15 0)
(4.49495 3.07786e-14 0)
(4.49495 2.03335e-14 0)
(4.49495 4.35609e-14 0)
(4.49495 7.68266e-14 0)
(4.49495 5.12322e-14 0)
(4.49495 4.66314e-14 0)
(4.49495 6.16807e-14 0)
(4.49495 6.45778e-15 0)
(4.49495 -6.1764e-14 0)
(4.49495 -9.08657e-14 0)
(4.49495 -8.19275e-14 0)
(4.49495 -6.25841e-14 0)
(4.49495 6.24041e-14 0)
(4.49495 1.33766e-13 0)
(4.49495 1.69099e-13 0)
(4.49495 1.62555e-13 0)
(4.49495 3.38125e-14 0)
(4.49495 -5.72399e-14 0)
(4.49495 -5.89102e-14 0)
(4.49495 -7.17891e-14 0)
(4.49495 -1.06472e-13 0)
(4.49495 -1.07745e-13 0)
(4.49495 -5.61464e-14 0)
(4.49495 -3.80132e-14 0)
(4.49495 -9.89771e-14 0)
(4.49495 4.16351e-15 0)
(4.49495 6.45778e-15 0)
(4.49495 -3.70397e-15 0)
(4.49495 -1.80464e-14 0)
(4.49495 -1.34623e-14 0)
(4.49495 1.63328e-14 0)
(4.49495 3.07987e-14 0)
(4.49495 -2.7218e-14 0)
(4.49495 -1.23701e-13 0)
(4.49495 -1.20898e-13 0)
(4.49495 -8.4808e-14 0)
(4.49495 -2.38208e-14 0)
(4.49495 3.20322e-14 0)
(4.49495 3.81866e-14 0)
(4.49495 5.42894e-14 0)
(4.49495 8.22975e-14 0)
(4.49495 8.31044e-14 0)
(4.49495 4.30974e-14 0)
(4.49495 3.42693e-14 0)
(4.49495 1.04115e-13 0)
(4.49495 3.88867e-14 0)
(4.49495 -7.50696e-14 0)
(4.49495 -1.72837e-13 0)
(4.49495 -1.1323e-13 0)
(4.49495 3.41992e-14 0)
(4.49495 1.18304e-13 0)
(4.49495 9.55465e-14 0)
(4.49495 1.31213e-13 0)
(4.49495 1.62668e-13 0)
(4.49495 1.83315e-13 0)
(4.49495 1.22948e-13 0)
(4.49495 9.21359e-14 0)
(4.49495 1.46389e-13 0)
(4.49495 8.59148e-14 0)
(4.49495 -3.21389e-14 0)
(4.49495 -9.34828e-14 0)
(4.49495 -1.94234e-13 0)
(4.49495 -2.45929e-13 0)
(4.49495 -2.24372e-13 0)
(4.49495 -2.19918e-13 0)
(4.49495 -1.64567e-13 0)
(4.49495 2.26706e-15 0)
(4.49495 1.57727e-14 0)
(4.49495 5.9977e-15 0)
(4.49495 9.75502e-15 0)
(4.49495 -2.67713e-15 0)
(4.49495 -3.82433e-14 0)
(4.49495 -7.27959e-14 0)
(4.49495 -9.39396e-14 0)
(4.49495 -1.10259e-13 0)
(4.49495 -1.29392e-13 0)
(4.49495 -7.50396e-14 0)
(4.49495 -1.02151e-14 0)
(4.49495 -2.56711e-16 0)
(4.49495 -4.33408e-17 0)
(4.49495 1.62395e-14 0)
(4.49495 -1.1332e-14 0)
(4.49495 -4.56245e-14 0)
(4.49495 -5.46528e-14 0)
(4.49495 -2.61112e-14 0)
(4.49495 3.15721e-15 0)
(4.49495 -1.48626e-14 0)
(4.49495 -7.38127e-15 0)
(4.49495 5.65964e-14 0)
(4.49495 1.01578e-13 0)
(4.49495 1.25825e-13 0)
(4.49495 1.53043e-13 0)
(4.49495 1.91713e-13 0)
(4.49495 1.65932e-13 0)
(4.49495 1.7514e-13 0)
(4.49495 9.90338e-14 0)
(4.49495 2.44109e-14 0)
(4.49495 -1.01818e-14 0)
(4.49495 -3.10287e-14 0)
(4.49495 -6.89919e-14 0)
(4.49495 -6.02104e-15 0)
(4.49495 3.08453e-14 0)
(4.49495 1.22888e-14 0)
(4.49495 -4.27841e-14 0)
(4.49495 -9.26627e-14 0)
(4.49495 -6.96366e-14 0)
(4.49495 -2.02468e-14 0)
(4.49495 -1.3669e-16 0)
(4.49495 1.57027e-15 0)
(4.49495 -1.62861e-14 0)
(4.49495 -4.31041e-14 0)
(4.49495 -4.22306e-14 0)
(4.49495 -1.3589e-14 0)
(4.49495 1.51226e-14 0)
(4.49495 4.49911e-14 0)
(4.49495 6.97687e-14 0)
(4.49495 6.49245e-14 0)
(4.49495 4.38442e-14 0)
(4.49495 4.58446e-14 0)
(4.49495 3.40392e-14 0)
(4.49495 6.46445e-15 0)
(4.49495 -3.05486e-14 0)
(4.49495 -4.8115e-14 0)
(4.49495 -3.6833e-14 0)
(4.49495 -2.95451e-14 0)
(4.49495 3.4486e-14 0)
(4.49495 9.85504e-14 0)
(4.49495 1.12549e-13 0)
(4.49495 8.77385e-14 0)
(4.49495 1.49709e-13 0)
(4.49495 1.64195e-13 0)
(4.49495 1.75354e-13 0)
(4.49495 1.1437e-13 0)
(4.49495 5.41193e-14 0)
(4.49495 7.32293e-14 0)
(4.49495 -2.46443e-14 0)
(4.49495 -1.19767e-13 0)
(4.49495 -1.90583e-13 0)
(4.49495 -2.25586e-13 0)
(4.49495 -1.76027e-13 0)
(4.49495 -4.13071e-14 0)
(4.49495 -1.58794e-14 0)
(4.49495 9.40162e-16 0)
(4.49495 -1.15463e-13 0)
(4.49495 -2.48093e-13 0)
(4.49495 -2.76347e-13 0)
(4.49495 -1.61595e-14 0)
(4.49495 -5.41494e-14 0)
(4.49495 -4.73182e-14 0)
(4.49495 -5.70799e-14 0)
(4.49495 -7.99105e-14 0)
(4.49495 -5.42994e-14 0)
(4.49495 8.19475e-15 0)
(4.49495 5.68498e-14 0)
(4.49495 7.3326e-14 0)
(4.49495 1.51509e-13 0)
(4.49495 1.83048e-13 0)
(4.49495 1.77994e-13 0)
(4.49495 5.30692e-14 0)
(4.49495 -1.43992e-14 0)
(4.49495 -5.06921e-14 0)
(4.49495 -1.90933e-14 0)
(4.49495 1.22154e-14 0)
(4.49495 6.1644e-15 0)
(4.49495 1.20954e-14 0)
(4.49495 6.7575e-14 0)
(4.49495 7.57698e-14 0)
(4.49495 8.99222e-14 0)
(4.49495 8.08673e-14 0)
(4.49495 7.73534e-14 0)
(4.49495 6.34476e-14 0)
(4.49495 9.14458e-14 0)
(4.49495 9.44096e-14 0)
(4.49495 6.16907e-14 0)
(4.49495 2.92851e-14 0)
(4.49495 -3.36525e-14 0)
(4.49495 -7.04122e-14 0)
(4.49495 -9.78102e-14 0)
(4.49495 -3.64296e-14 0)
(4.49495 -2.06369e-15 0)
(4.49495 3.17722e-15 0)
(4.49495 -1.09899e-13 0)
(4.49495 -1.41131e-13 0)
(4.49495 -2.04202e-13 0)
(4.49495 -2.04185e-13 0)
(4.49495 -1.60004e-13 0)
(4.49495 9.73501e-16 0)
(4.49495 1.60028e-15 0)
(4.49495 -3.0672e-15 0)
(4.49495 -1.60961e-14 0)
(4.49495 -4.38809e-14 0)
(4.49495 -2.1247e-14 0)
(4.49495 7.29626e-14 0)
(4.49495 1.09819e-13 0)
(4.49495 7.46462e-14 0)
(4.49495 5.64131e-14 0)
(4.49495 2.76448e-14 0)
(4.49495 1.13386e-14 0)
(4.49495 -9.17959e-14 0)
(4.49495 -1.46795e-13 0)
(4.49495 -1.41401e-13 0)
(4.49495 -1.21434e-13 0)
(4.49495 -4.92552e-14 0)
(4.49495 2.68046e-15 0)
(4.49495 5.09088e-15 0)
(4.49495 -2.56111e-14 0)
(4.49495 -3.38892e-14 0)
(4.49495 3.35391e-15 0)
(4.49495 3.21722e-15 0)
(4.49495 -1.21888e-14 0)
(4.49495 -1.68896e-14 0)
(4.49495 -1.49726e-14 0)
(4.49495 -8.60482e-15 0)
(4.49495 3.39059e-15 0)
(4.49495 -6.52046e-14 0)
(4.49495 -6.16873e-14 0)
(4.49495 -6.99888e-14 0)
(4.49495 -6.69049e-14 0)
(4.49495 -3.0672e-14 0)
(4.49495 -4.07904e-14 0)
(4.49495 -6.50912e-14 0)
(4.49495 -9.32994e-14 0)
(4.49495 -1.03478e-13 0)
(4.49495 -1.26172e-13 0)
(4.49495 -1.48342e-13 0)
(4.49495 2.65893e-14 0)
(4.49495 7.93804e-15 0)
(4.49495 2.97651e-14 0)
(4.49495 4.36409e-15 0)
(4.49495 3.87734e-15 0)
(4.49495 2.38274e-14 0)
(4.49495 5.13722e-14 0)
(4.49495 9.14525e-14 0)
(4.49495 7.23725e-14 0)
(4.49495 3.37558e-14 0)
(4.49495 -5.28425e-15 0)
(4.49495 -9.53265e-14 0)
(4.49495 -1.5461e-13 0)
(4.49495 -1.51976e-13 0)
(4.49495 -8.15441e-14 0)
(4.49495 -2.83982e-14 0)
(4.49495 8.26143e-15 0)
(4.49495 -2.82315e-14 0)
(4.49495 -1.05252e-14 0)
(4.49495 9.80169e-15 0)
(4.49495 -2.22072e-14 0)
(4.49495 -2.98085e-14 0)
(4.49495 -5.67331e-14 0)
(4.49495 -2.47743e-14 0)
(4.49495 -5.07821e-14 0)
(4.49495 -3.61629e-14 0)
(4.49495 -8.38778e-14 0)
(4.49495 -1.9067e-13 0)
(4.49495 -1.98651e-13 0)
(4.49495 -1.76807e-13 0)
(4.49495 -1.31449e-13 0)
(4.49495 -6.26842e-14 0)
(4.49495 -1.04318e-14 0)
(4.49495 -6.50012e-14 0)
(4.49495 -1.43778e-13 0)
(4.49495 -1.87602e-13 0)
(4.49495 -1.52656e-13 0)
(4.49495 -1.51259e-13 0)
(4.49495 -1.57477e-13 0)
(4.49495 -7.30526e-14 0)
(4.49495 -1.21954e-14 0)
(4.49495 4.72748e-15 0)
(4.49495 1.27022e-15 0)
(4.49495 2.62845e-14 0)
(4.49495 6.02871e-14 0)
(4.49495 8.14007e-14 0)
(4.49495 6.89286e-14 0)
(4.49495 1.43558e-14 0)
(4.49495 1.84532e-14 0)
(4.49495 -2.26006e-14 0)
(4.49495 -5.03654e-14 0)
(4.49495 -2.70547e-14 0)
(4.49495 -1.86299e-14 0)
(4.49495 -8.09473e-15 0)
(4.49495 3.41892e-14 0)
(4.49495 4.50411e-14 0)
(4.49495 4.04036e-14 0)
(4.49495 2.37374e-15 0)
(4.49495 -1.1732e-14 0)
(4.49495 -8.88153e-15 0)
(4.49495 3.54561e-14 0)
(4.49495 4.46944e-14 0)
(4.49495 4.67281e-14 0)
(4.49495 5.55363e-14 0)
(4.49495 4.02303e-14 0)
(4.49495 -4.89518e-14 0)
(4.49495 -1.22971e-13 0)
(4.49495 -1.30729e-13 0)
(4.49495 -4.74149e-14 0)
(4.49495 -3.25456e-14 0)
(4.49495 -9.55832e-15 0)
(4.49495 1.39867e-13 0)
(4.49495 1.3447e-13 0)
(4.49495 6.9602e-14 0)
(4.49495 -5.39493e-14 0)
(4.49495 -9.06223e-14 0)
(4.49495 -9.4403e-14 0)
(4.49495 -7.90036e-14 0)
(4.49495 -5.9957e-14 0)
(4.49495 -3.69164e-14 0)
(4.49495 -6.6622e-14 0)
(4.49495 4.04403e-15 0)
(4.49495 3.55728e-15 0)
(4.49495 6.12639e-14 0)
(4.49495 5.9797e-14 0)
(4.49495 6.59014e-14 0)
(4.49495 4.54478e-14 0)
(4.49495 1.75597e-14 0)
(4.49495 -2.02535e-14 0)
(4.49495 -5.2169e-14 0)
(4.49495 -7.5373e-14 0)
(4.49495 4.9962e-14 0)
(4.49495 8.61415e-14 0)
(4.49495 2.26739e-14 0)
(4.49495 2.1017e-14 0)
(4.49495 -2.6748e-14 0)
(4.49495 -3.17421e-14 0)
(4.49495 1.66495e-14 0)
(4.49495 3.83433e-14 0)
(4.49495 1.81031e-14 0)
(4.49495 1.5286e-14 0)
(4.49495 4.33108e-14 0)
(4.49495 4.30408e-14 0)
(4.49495 3.60396e-15 0)
(4.49495 -4.40143e-14 0)
(4.49495 -4.98253e-14 0)
(4.49495 -8.17641e-14 0)
(4.49495 -1.12273e-13 0)
(4.49495 -1.97301e-14 0)
(4.49495 6.03004e-14 0)
(4.49495 5.48295e-14 0)
(4.49495 1.61445e-13 0)
(4.49495 8.63082e-14 0)
(4.49495 -2.34841e-14 0)
(4.49495 -6.91486e-14 0)
(4.49495 -7.30226e-14 0)
(4.49495 -6.39044e-14 0)
(4.49495 7.00921e-14 0)
(4.49495 9.10724e-14 0)
(4.49495 6.11572e-14 0)
(4.49495 8.07934e-14 0)
(4.49495 1.30256e-14 0)
(4.49495 4.02803e-14 0)
(4.49495 1.43358e-14 0)
(4.49495 7.17791e-15 0)
(4.49495 1.08219e-14 0)
(4.49495 -3.98402e-15 0)
(4.49495 -1.5456e-14 0)
(4.49495 -2.24239e-14 0)
(4.49495 -1.96101e-14 0)
(4.49495 -9.58499e-15 0)
(4.49495 2.6748e-14 0)
(4.49495 4.69414e-14 0)
(4.49495 2.10636e-14 0)
(4.49495 -3.09387e-15 0)
(4.49495 -1.01818e-14 0)
(4.49495 -1.40791e-14 0)
(4.49495 1.68929e-14 0)
(4.49495 6.47078e-14 0)
(4.49495 8.10973e-14 0)
(4.49495 1.12993e-13 0)
(4.49495 1.53667e-13 0)
(4.49495 -1.10219e-14 0)
(4.49495 -1.48322e-13 0)
(4.49495 -1.69043e-13 0)
(4.49495 -2.04972e-13 0)
(4.49495 -2.34317e-13 0)
(4.49495 -1.90353e-13 0)
(4.49495 -4.59313e-14 0)
(4.49495 3.73264e-14 0)
(4.49495 5.86568e-14 0)
(4.49495 6.97587e-14 0)
(4.49495 9.91905e-14 0)
(4.49495 6.21741e-14 0)
(4.49495 6.1994e-14 0)
(4.49495 5.29625e-14 0)
(4.49495 6.87485e-14 0)
(4.49495 1.38511e-13 0)
(4.49495 1.48412e-13 0)
(4.49495 1.32213e-13 0)
(4.49495 1.41354e-13 0)
(4.49495 1.11786e-14 0)
(4.49495 -1.58527e-14 0)
(4.49495 -3.22389e-14 0)
(4.49495 -1.03051e-14 0)
(4.49495 1.3689e-14 0)
(4.49495 -1.48959e-14 0)
(4.49495 -1.22521e-14 0)
(4.49495 -1.70963e-14 0)
(4.49495 2.70847e-14 0)
(4.49495 1.00844e-13 0)
(4.49495 7.45862e-14 0)
(4.49495 8.55081e-14 0)
(4.49495 1.28622e-13 0)
(4.49495 1.65295e-14 0)
(4.49495 -1.54593e-14 0)
(4.49495 -3.99836e-14 0)
(4.49495 -6.00037e-14 0)
(4.49495 -5.83701e-14 0)
(4.49495 2.26239e-14 0)
(4.49495 7.78034e-14 0)
(4.49495 6.35343e-14 0)
(4.49495 1.47792e-14 0)
(4.49495 -5.77133e-14 0)
(4.49495 -6.50312e-14 0)
(4.49495 -1.10396e-13 0)
(4.49495 -1.86429e-13 0)
(4.49495 -1.59968e-13 0)
(4.49495 -1.00964e-13 0)
(4.49495 -1.19784e-13 0)
(4.49495 -7.84135e-14 0)
(4.49495 -5.36326e-14 0)
(4.49495 -2.25072e-14 0)
(4.49495 3.6733e-14 0)
(4.49495 1.58884e-13 0)
(4.49495 1.9166e-13 0)
(4.49495 1.36237e-13 0)
(4.49495 5.2279e-14 0)
(4.49495 6.68282e-14 0)
(4.49495 1.57894e-14 0)
(4.49495 -2.17079e-14 0)
(4.49495 -1.39224e-14 0)
(4.49495 -5.9997e-14 0)
(4.49495 -5.5763e-14 0)
(4.49495 -5.82901e-14 0)
(4.49495 -5.19423e-14 0)
(4.49495 1.51926e-14 0)
(4.49495 8.43412e-14 0)
(4.49495 8.24242e-14 0)
(4.49495 8.91987e-14 0)
(4.49495 9.18925e-14 0)
(4.49495 9.93838e-14 0)
(4.49495 8.65883e-14 0)
(4.49495 1.12123e-13 0)
(4.49495 3.22056e-14 0)
(4.49495 -1.75697e-15 0)
(4.49495 1.26955e-14 0)
(4.49495 -2.35774e-14 0)
(4.49495 -4.01003e-14 0)
(4.49495 1.80031e-14 0)
(4.49495 2.09836e-14 0)
(4.49495 1.30756e-14 0)
(4.49495 3.62129e-14 0)
(4.49495 -5.71332e-14 0)
(4.49495 -8.51547e-14 0)
(4.49495 -5.62597e-14 0)
(4.49495 -3.42259e-14 0)
(4.49495 1.19354e-14 0)
(4.49495 1.38691e-14 0)
(4.49495 -1.90033e-14 0)
(4.49495 -1.10006e-13 0)
(4.49495 -1.95087e-13 0)
(4.49495 -2.5102e-13 0)
(4.49495 -1.20931e-13 0)
(4.49495 -2.2974e-14 0)
(4.49495 5.29525e-14 0)
(4.49495 -4.82217e-14 0)
(4.49495 -1.10352e-13 0)
(4.49495 -4.88351e-14 0)
(4.49495 -4.07304e-14 0)
(4.49495 -3.70487e-14 0)
(4.49495 -6.80117e-16 0)
(4.49495 1.54027e-14 0)
(4.49495 7.89803e-15 0)
(4.49495 4.26107e-14 0)
(4.49495 5.69165e-14 0)
(4.49495 9.60166e-14 0)
(4.49495 8.16874e-14 0)
(4.49495 9.16958e-14 0)
(4.49495 4.40143e-14 0)
(4.49495 1.35423e-14 0)
(4.49495 -1.53226e-14 0)
(4.49495 2.75681e-14 0)
(4.49495 5.81967e-14 0)
(4.49495 1.48526e-13 0)
(4.49495 2.3111e-13 0)
(4.49495 1.50446e-13 0)
(4.49495 7.08489e-14 0)
(4.49495 4.28974e-14 0)
(4.49495 -2.16904e-14 0)
(4.49495 -9.42329e-14 0)
(4.49495 -7.43228e-14 0)
(4.49495 -3.56128e-14 0)
(4.49495 1.45492e-14 0)
(4.49495 3.13487e-14 0)
(4.49495 3.92734e-15 0)
(4.49495 -4.86084e-15 0)
(4.49495 -1.47625e-14 0)
(4.49495 1.56527e-14 0)
(4.49495 3.75065e-15 0)
(4.49495 -3.58162e-14 0)
(4.49495 -8.69483e-14 0)
(4.49495 -2.50143e-14 0)
(4.49495 4.4501e-14 0)
(4.49495 8.39612e-14 0)
(4.49495 6.03471e-14 0)
(4.49495 -4.96352e-14 0)
(4.49495 -3.99969e-14 0)
(4.49495 4.6538e-14 0)
(4.49495 1.3345e-13 0)
(4.49495 1.05888e-13 0)
(4.49495 5.63764e-15 0)
(4.49495 1.87732e-14 0)
(4.49495 -1.19687e-15 0)
(4.49495 6.02104e-15 0)
(4.49495 3.56662e-14 0)
(4.49495 -3.02386e-15 0)
(4.49495 -7.71167e-14 0)
(4.49495 -8.50247e-14 0)
(4.49495 -2.13304e-14 0)
(4.49495 -1.86032e-14 0)
(4.49495 -4.91585e-14 0)
(4.49495 -7.47496e-14 0)
(4.49495 1.24021e-15 0)
(4.49495 7.08956e-14 0)
(4.49495 1.518e-13 0)
(4.49495 1.81265e-13 0)
(4.49495 1.64125e-13 0)
(4.49495 -8.52814e-14 0)
(4.49495 -2.83932e-13 0)
(4.49495 -3.61106e-13 0)
(4.49495 -2.97688e-13 0)
(4.49495 -5.21923e-14 0)
(4.49495 5.76633e-14 0)
(4.49495 1.26909e-13 0)
(4.49495 4.8215e-14 0)
(4.49495 -2.95784e-14 0)
(4.49495 -3.98769e-14 0)
(4.49495 -4.76516e-14 0)
(4.49495 -8.74151e-15 0)
(4.49495 1.78564e-14 0)
(4.49495 -4.55145e-14 0)
(4.49495 -5.57196e-14 0)
(4.49495 -5.20557e-14 0)
(4.49495 -1.17754e-14 0)
(4.49495 -4.2574e-15 0)
(4.49495 4.37175e-14 0)
(4.49495 1.28042e-13 0)
(4.49495 1.41848e-13 0)
(4.49495 1.53567e-13 0)
(4.49495 1.33301e-13 0)
(4.49495 -8.06806e-16 0)
(4.49495 6.24775e-15 0)
(4.49495 -9.42163e-15 0)
(4.49495 -6.10739e-14 0)
(4.49495 -9.98172e-14 0)
(4.49495 -1.26032e-13 0)
(4.49495 -6.73283e-14 0)
(4.49495 -4.56045e-14 0)
(4.49495 -2.1517e-14 0)
(4.49495 -1.01551e-14 0)
(4.49495 -3.16455e-14 0)
(4.49495 2.76648e-14 0)
(4.49495 6.29209e-14 0)
(4.49495 8.43912e-14 0)
(4.49495 6.04871e-14 0)
(4.49495 1.63328e-14 0)
(4.49495 1.48692e-15 0)
(4.49495 -1.13256e-13 0)
(4.49495 -1.27869e-13 0)
(4.49495 -1.41704e-13 0)
(4.49495 -1.37877e-13 0)
(4.49495 -7.92337e-14 0)
(4.49495 2.56478e-14 0)
(4.49495 4.37842e-14 0)
(4.49495 8.84853e-14 0)
(4.49495 5.87435e-14 0)
(4.49495 2.71614e-14 0)
(4.49495 2.06469e-14 0)
(4.49495 5.93436e-16 0)
(4.49495 -1.01051e-14 0)
(4.49495 -2.11903e-14 0)
(4.49495 -3.19522e-14 0)
(4.49495 -3.59362e-14 0)
(4.49495 -6.73816e-14 0)
(4.49495 -5.10955e-14 0)
(4.49495 -8.97488e-15 0)
(4.49495 9.05623e-14 0)
(4.49495 7.87303e-14 0)
(4.49495 5.00353e-14 0)
(4.49495 6.66939e-14 0)
(4.49495 7.75134e-15 0)
(4.49495 -1.62095e-14 0)
(4.49495 -2.22005e-14 0)
(4.49495 -3.96635e-14 0)
(4.49495 -1.1811e-13 0)
(4.49495 -1.30769e-13 0)
(4.49495 -9.49931e-14 0)
(4.49495 -4.46844e-14 0)
(4.49495 -7.57464e-14 0)
(4.49495 -8.22742e-14 0)
(4.49495 -6.80184e-14 0)
(4.49495 -2.63445e-14 0)
(4.49495 -1.71296e-14 0)
(4.49495 -2.42475e-14 0)
(4.49495 -5.37359e-14 0)
(4.49495 -8.30943e-14 0)
(4.49495 -7.27926e-14 0)
(4.49495 -6.70616e-14 0)
(4.49495 -2.97185e-14 0)
(4.49495 3.83133e-14 0)
(4.49495 7.71033e-14 0)
(4.49495 8.79819e-14 0)
(4.49495 2.86316e-14 0)
(4.49495 6.10772e-15 0)
(4.49495 -1.03851e-14 0)
(4.49495 3.96402e-15 0)
(4.49495 -5.9977e-15 0)
(4.49495 2.93717e-15 0)
(4.49495 2.07703e-14 0)
(4.49495 -2.20371e-14 0)
(4.49495 2.42975e-14 0)
(4.49495 1.22484e-13 0)
(4.49495 1.47339e-13 0)
(4.49495 1.11536e-13 0)
(4.49495 1.00171e-13 0)
(4.49495 3.10687e-14 0)
(4.49495 2.07002e-14 0)
(4.49495 -1.31756e-14 0)
(4.49495 -2.54744e-14 0)
(4.49495 -4.64875e-14 0)
(4.49495 7.97138e-15 0)
(4.49495 4.89084e-15 0)
(4.49495 -1.58394e-14 0)
(4.49495 -9.01822e-15 0)
(4.49495 -1.53426e-14 0)
(4.49495 -1.92567e-14 0)
(4.49495 -6.98254e-14 0)
(4.49495 -1.25688e-13 0)
(4.49495 -1.29009e-13 0)
(4.49495 -1.03515e-13 0)
(4.49495 -7.60831e-14 0)
(4.49495 -1.00327e-13 0)
(4.49495 -1.46839e-13 0)
(4.49495 -1.7608e-13 0)
(4.49495 -1.96554e-13 0)
(4.49495 -5.90602e-14 0)
(4.49495 3.37758e-14 0)
(4.49495 8.20342e-14 0)
(4.49495 9.79903e-14 0)
(4.49495 1.24175e-13 0)
(4.49495 7.10456e-14 0)
(4.49495 6.50679e-14 0)
(4.49495 1.24188e-14 0)
(4.49495 -8.44346e-14 0)
(4.49495 -1.39981e-13 0)
(4.49495 -5.55163e-14 0)
(4.49495 9.17492e-15 0)
(4.49495 8.3081e-15 0)
(4.49495 -5.93202e-14 0)
(4.49495 -1.40118e-13 0)
(4.49495 -1.45545e-13 0)
(4.49495 -1.01894e-13 0)
(4.49495 1.1812e-14 0)
(4.49495 5.53696e-14 0)
(4.49495 4.54112e-14 0)
(4.49495 -2.47809e-14 0)
(4.49495 -9.34161e-14 0)
(4.49495 -8.80819e-14 0)
(4.49495 -8.06306e-14 0)
(4.49495 -1.1812e-13 0)
(4.49495 -8.4648e-15 0)
(4.49495 2.20105e-14 0)
(4.49495 8.4698e-14 0)
(4.49495 1.1736e-13 0)
(4.49495 1.11683e-13 0)
(4.49495 1.24081e-13 0)
(4.49495 1.1311e-13 0)
(4.49495 4.02536e-14 0)
(4.49495 -4.54745e-14 0)
(4.49495 -5.76366e-14 0)
(4.49495 -3.89734e-14 0)
(4.49495 -6.50146e-14 0)
(4.49495 -1.05222e-13 0)
(4.49495 -9.62666e-14 0)
(4.49495 -1.03114e-13 0)
(4.49495 -9.93372e-14 0)
(4.49495 -3.01419e-14 0)
(4.49495 3.43159e-14 0)
(4.49495 5.2029e-14 0)
(4.49495 1.84165e-14 0)
(4.49495 -1.04725e-13 0)
(4.49495 -1.12519e-13 0)
(4.49495 -7.32426e-14 0)
(4.49495 -6.44011e-14 0)
(4.49495 -1.5336e-14 0)
(4.49495 5.771e-14 0)
(4.49495 7.08256e-14 0)
(4.49495 1.87999e-14 0)
(4.49495 -6.99721e-14 0)
(4.49495 -1.00367e-13 0)
(4.49495 -8.15374e-14 0)
(4.49495 -1.19264e-13 0)
(4.49495 -8.96755e-14 0)
(4.49495 -6.27842e-14 0)
(4.49495 -5.15956e-14 0)
(4.49495 -4.56912e-14 0)
(4.49495 -5.89435e-15 0)
(4.49495 8.15474e-15 0)
(4.49495 -9.2416e-15 0)
(4.49495 -5.98034e-14 0)
(4.49495 -1.78964e-14 0)
(4.49495 -2.48009e-14 0)
(4.49495 8.4948e-15 0)
(4.49495 6.27208e-14 0)
(4.49495 1.1353e-13 0)
(4.49495 9.25993e-14 0)
(4.49495 5.90535e-14 0)
(4.49495 4.4571e-14 0)
(4.49495 -4.52011e-14 0)
(4.49495 -5.82534e-14 0)
(4.49495 -6.46012e-14 0)
(4.49495 -6.67382e-14 0)
(4.49495 -5.84234e-14 0)
(4.49495 -5.47495e-14 0)
(4.49495 2.25706e-15 0)
(4.49495 -4.96486e-14 0)
(4.49495 -1.15093e-13 0)
(4.49495 -1.3484e-13 0)
(4.49495 -8.27043e-14 0)
(4.49495 -8.30277e-14 0)
(4.49495 -9.21993e-14 0)
(4.49495 -1.24578e-13 0)
(4.49495 -9.20759e-14 0)
(4.49495 4.07837e-14 0)
(4.49495 1.13316e-13 0)
(4.49495 1.09519e-13 0)
(4.49495 7.75934e-14 0)
(4.49495 5.30258e-14 0)
(4.49495 6.72816e-14 0)
(4.49495 6.74917e-14 0)
(4.49495 6.62748e-14 0)
(4.49495 4.99486e-14 0)
(4.49495 -7.26592e-14 0)
(4.49495 -1.35457e-13 0)
(4.49495 -9.42096e-14 0)
(4.49495 -5.0192e-14 0)
(4.49495 6.69416e-14 0)
(4.49495 2.1219e-13 0)
(4.49495 2.09023e-13 0)
(4.49495 1.84912e-13 0)
(4.49495 8.89487e-15 0)
(4.49495 -2.47709e-14 0)
(4.49495 -1.07645e-13 0)
(4.49495 -9.98406e-14 0)
(4.49495 -2.56644e-14 0)
(4.49495 -9.59499e-15 0)
(4.49495 -1.77131e-14 0)
(4.49495 4.81083e-15 0)
(4.49495 3.2819e-14 0)
(4.49495 1.57294e-14 0)
(4.49495 -1.36457e-14 0)
(4.49495 -4.4141e-15 0)
(4.49495 4.52178e-14 0)
(4.49495 5.9887e-14 0)
(4.49495 7.29693e-14 0)
(4.49495 6.05971e-14 0)
(4.49495 4.74482e-14 0)
(4.49495 9.00822e-15 0)
(4.49495 -2.35974e-14 0)
(4.49495 -2.03335e-14 0)
(4.49495 -5.12589e-14 0)
(4.49495 -9.95305e-14 0)
(4.49495 -7.05455e-14 0)
(4.49495 -3.03652e-14 0)
(4.49495 -4.11071e-15 0)
(4.49495 4.55679e-14 0)
(4.49495 5.88135e-14 0)
(4.49495 9.14025e-14 0)
(4.49495 9.86237e-14 0)
(4.49495 4.68214e-14 0)
(4.49495 -2.16371e-14 0)
(4.49495 -8.25243e-14 0)
(4.49495 -1.07032e-13 0)
(4.49495 -6.31609e-14 0)
(4.49495 -5.69998e-14 0)
(4.49495 -3.57062e-15 0)
(4.49495 1.19194e-13 0)
(4.49495 1.3367e-13 0)
(4.49495 1.97037e-13 0)
(4.49495 3.19317e-13 0)
(4.49495 4.90418e-15 0)
(4.49495 1.06685e-15 0)
(4.49495 -8.95821e-14 0)
(4.49495 -1.41594e-13 0)
(4.49495 -1.21734e-13 0)
(4.49495 -5.32259e-14 0)
(4.49495 3.31191e-14 0)
(4.49495 1.01041e-13 0)
(4.49495 1.36997e-13 0)
(4.49495 9.8577e-14 0)
(4.49495 4.13005e-14 0)
(4.49495 9.92505e-15 0)
(4.49495 3.89601e-14 0)
(4.49495 6.48045e-14 0)
(4.49495 -1.23488e-14 0)
(4.49495 -2.68146e-14 0)
(4.49495 -3.20055e-15 0)
(4.49495 1.68762e-14 0)
(4.49495 -4.19772e-14 0)
(4.49495 -6.21774e-14 0)
(4.49495 -8.26643e-14 0)
(4.49495 -9.99339e-14 0)
(4.49495 -8.02872e-14 0)
(4.49495 3.80066e-16 0)
(4.49495 3.96302e-14 0)
(4.49495 3.60362e-14 0)
(4.49495 4.36942e-14 0)
(4.49495 2.36141e-14 0)
(4.49495 9.93838e-15 0)
(4.49495 -2.97751e-14 0)
(4.49495 -9.69834e-14 0)
(4.49495 -5.95369e-14 0)
(4.49495 2.74014e-14 0)
(4.49495 9.96839e-14 0)
(4.49495 1.36224e-14 0)
(4.49495 2.40041e-15 0)
(4.49495 1.39924e-14 0)
(4.49495 -8.68817e-15 0)
(4.49495 2.05002e-14 0)
(4.49495 1.16121e-13 0)
(4.49495 -5.08421e-15 0)
(4.49495 3.31724e-15 0)
(4.49495 1.31523e-14 0)
(4.49495 -5.73632e-14 0)
(4.49495 -9.666e-14 0)
(4.49495 -9.32928e-14 0)
(4.49495 -2.09336e-14 0)
(4.49495 -7.77134e-15 0)
(4.49495 -4.39076e-15 0)
(4.49495 2.15537e-14 0)
(4.49495 3.65163e-14 0)
(4.49495 2.3194e-14 0)
(4.49495 -1.21688e-14 0)
(4.49495 -6.67715e-14 0)
(4.49495 -1.72573e-13 0)
(4.49495 -1.88869e-13 0)
(4.49495 -1.61985e-13 0)
(4.49495 -1.53043e-13 0)
(4.49495 -1.68266e-13 0)
(4.49495 -8.79519e-14 0)
(4.49495 2.6828e-14 0)
(4.49495 2.85983e-14 0)
(4.49495 4.8105e-14 0)
(4.49495 1.13313e-13 0)
(4.49495 1.28212e-13 0)
(4.49495 9.98439e-14 0)
(4.49495 1.1822e-14 0)
(4.49495 -8.21909e-14 0)
(4.49495 -1.16393e-13 0)
(4.49495 -1.20391e-13 0)
(4.49495 1.62128e-14 0)
(4.49495 5.22724e-14 0)
(4.49495 4.48511e-14 0)
(4.49495 -2.71047e-14 0)
(4.49495 9.02156e-15 0)
(4.49495 6.86252e-14 0)
(4.49495 5.87401e-14 0)
(4.49495 3.70464e-14 0)
(4.49495 -4.90718e-14 0)
(4.49495 -1.13882e-13 0)
(4.49495 -1.53527e-14 0)
(4.49495 3.51061e-15 0)
(4.49495 9.98306e-14 0)
(4.49495 1.20537e-13 0)
(4.49495 1.02388e-13 0)
(4.49495 6.47478e-14 0)
(4.49495 2.42975e-14 0)
(4.49495 -5.42094e-15 0)
(4.49495 -1.72496e-14 0)
(4.49495 5.69432e-15 0)
(4.49495 3.97202e-14 0)
(4.49495 1.31856e-14 0)
(4.49495 -5.46261e-14 0)
(4.49495 -1.21418e-13 0)
(4.49495 -1.1486e-13 0)
(4.49495 -7.45495e-14 0)
(4.49495 -5.37393e-14 0)
(4.49495 -5.92102e-14 0)
(4.49495 -6.70716e-14 0)
(4.49495 -4.86851e-14 0)
(4.49495 -4.2434e-14 0)
(4.49495 -5.65464e-14 0)
(4.49495 -6.29442e-15 0)
(4.49495 -6.03871e-14 0)
(4.49495 -3.37558e-14 0)
(4.49495 -3.71331e-14 0)
(4.49495 -1.00301e-13 0)
(4.49495 -1.78988e-13 0)
(4.49495 -2.04142e-13 0)
(4.49495 -1.97184e-13 0)
(4.49495 -1.28182e-13 0)
(4.49495 -4.67414e-14 0)
(4.49495 -5.06087e-14 0)
(4.49495 -5.3856e-14 0)
(4.49495 3.92968e-14 0)
(4.49495 5.08988e-14 0)
(4.49495 1.94334e-14 0)
(4.49495 1.07052e-14 0)
(4.49495 -7.39961e-14 0)
(4.49495 -9.31894e-14 0)
(4.49495 -1.61361e-15 0)
(4.49495 2.36441e-14 0)
(4.49495 7.79835e-14 0)
(4.49495 1.39507e-13 0)
(4.49495 1.37744e-13 0)
(4.49495 9.38695e-14 0)
(4.49495 3.75865e-14 0)
(4.49495 1.00717e-14 0)
(4.49495 2.05135e-14 0)
(4.49495 3.81266e-14 0)
(4.49495 1.73663e-14 0)
(4.49495 -1.79864e-14 0)
(4.49495 -1.05582e-13 0)
(4.49495 -1.21988e-13 0)
(4.49495 -1.21508e-13 0)
(4.49495 -1.02851e-13 0)
(4.49495 -1.12109e-13 0)
(4.49495 -6.35476e-14 0)
(4.49495 -6.36143e-14 0)
(4.49495 -2.33574e-14 0)
(4.49495 -2.01601e-14 0)
(4.49495 5.30425e-15 0)
(4.49495 -6.40444e-15 0)
(4.49495 -8.60982e-14 0)
(4.49495 -2.01775e-13 0)
(4.49495 -3.18702e-13 0)
(4.49495 -3.03742e-13 0)
(4.49495 -2.694e-13 0)
(4.49495 -2.39268e-13 0)
(4.49495 -1.67882e-13 0)
(4.49495 -9.76169e-14 0)
(4.49495 -4.08271e-14 0)
(4.49495 -1.80431e-14 0)
(4.49495 -1.21254e-14 0)
(4.49495 5.30758e-15 0)
(4.49495 -2.37041e-15 0)
(4.49495 -4.27007e-14 0)
(4.49495 -6.02637e-14 0)
(4.49495 -6.5458e-14 0)
(4.49495 -5.78807e-14 0)
(4.49495 2.3204e-14 0)
(4.49495 -9.86837e-16 0)
(4.49495 -4.73448e-14 0)
(4.49495 -2.45709e-14 0)
(4.49495 1.77064e-14 0)
(4.49495 1.19687e-14 0)
(4.49495 -3.20355e-14 0)
(4.49495 -5.70365e-14 0)
(4.49495 -3.46627e-14 0)
(4.49495 1.57594e-14 0)
(4.49495 3.0932e-14 0)
(4.49495 5.88735e-14 0)
(4.49495 1.60628e-14 0)
(4.49495 -4.0287e-14 0)
(4.49495 -6.68749e-14 0)
(4.49495 -9.23559e-14 0)
(4.49495 -7.35227e-14 0)
(4.49495 -1.17564e-13 0)
(4.49495 -2.87916e-14 0)
(4.49495 -1.5326e-14 0)
(4.49495 -2.45009e-14 0)
(4.49495 -4.49844e-14 0)
(4.49495 -4.54979e-14 0)
(4.49495 -7.91903e-14 0)
(4.49495 -1.59901e-13 0)
(4.49495 -2.27276e-13 0)
(4.49495 -2.15941e-13 0)
(4.49495 -1.61985e-13 0)
(4.49495 -1.08202e-13 0)
(4.49495 -7.5363e-14 0)
(4.49495 -8.69684e-14 0)
(4.49495 -1.11046e-13 0)
(4.49495 -8.52047e-14 0)
(4.49495 -8.33111e-14 0)
(4.49495 -7.19424e-14 0)
(4.49495 -8.93721e-14 0)
(4.49495 -1.84132e-13 0)
(4.49495 -1.71626e-13 0)
(4.49495 -1.15747e-13 0)
(4.49495 -1.03443e-13 0)
(4.49495 -9.70168e-16 0)
(4.49495 -5.2109e-15 0)
(4.49495 -7.1279e-15 0)
(4.49495 -5.57096e-15 0)
(4.49495 4.81116e-14 0)
(4.49495 6.80718e-14 0)
(4.49495 5.00486e-14 0)
(4.49495 3.00585e-14 0)
(4.49495 2.65279e-14 0)
(4.49495 1.92867e-14 0)
(4.49495 1.45158e-14 0)
(4.49495 3.77265e-14 0)
(4.49495 1.17187e-13 0)
(4.49495 1.26852e-13 0)
(4.49495 1.21094e-13 0)
(4.49495 1.1765e-13 0)
(4.49495 1.10742e-13 0)
(4.49495 1.1384e-13 0)
(4.49495 1.79218e-13 0)
(4.49495 1.42791e-13 0)
(4.49495 1.26308e-13 0)
(4.49495 7.46762e-14 0)
(4.49495 9.04089e-14 0)
(4.49495 1.00274e-13 0)
(4.49495 7.62765e-14 0)
(4.49495 4.35975e-14 0)
(4.49495 3.05819e-14 0)
(4.49495 6.52113e-14 0)
(4.49495 6.16273e-14 0)
(4.49495 -2.35774e-14 0)
(4.49495 -1.1805e-13 0)
(4.49495 -2.04222e-13 0)
(4.49495 -1.51713e-13 0)
(4.49495 -1.5409e-13 0)
(4.49495 -1.22655e-13 0)
(4.49495 -1.44515e-13 0)
(4.49495 -2.75148e-13 0)
(4.49495 -2.321e-13 0)
(4.49495 -1.92347e-13 0)
(4.49495 -1.65127e-13 0)
(4.49495 -1.94034e-15 0)
(4.49495 2.47343e-14 0)
(4.49495 7.51463e-14 0)
(4.49495 7.46162e-14 0)
(4.49495 -2.90217e-14 0)
(4.49495 -5.08154e-14 0)
(4.49495 -2.99785e-14 0)
(4.49495 4.87784e-14 0)
(4.49495 5.34792e-14 0)
(4.49495 2.63145e-14 0)
(4.49495 1.80031e-14 0)
(4.49495 3.72331e-14 0)
(4.49495 5.27258e-14 0)
(4.49495 1.40171e-13 0)
(4.49495 1.84422e-13 0)
(4.49495 1.90513e-13 0)
(4.49495 1.95914e-13 0)
(4.49495 1.81358e-13 0)
(4.49495 1.04001e-13 0)
(4.49495 4.70581e-14 0)
(4.49495 3.28623e-14 0)
(4.49495 5.86301e-14 0)
(4.49495 1.77334e-13 0)
(4.49495 2.27776e-13 0)
(4.49495 1.76604e-13 0)
(4.49495 1.41708e-13 0)
(4.49495 1.5366e-13 0)
(4.49495 1.78871e-13 0)
(4.49495 1.81201e-13 0)
(4.49495 9.47364e-14 0)
(4.49495 2.41475e-14 0)