/*--------------------------------*- C++ -*----------------------------------*\
| =========                 |                                                 |
| \\      /  F ield         | OpenFOAM: The Open Source CFD Toolbox           |
|  \\    /   O peration     | Version:  2206                                  |
|   \\  /    A nd           | Website:  www.openfoam.com                      |
|    \\/     M anipulation  |                                                 |
\*---------------------------------------------------------------------------*/
FoamFile
{
    version     2.0;
    format      ascii;
    arch        "LSB;label=32;scalar=64";
    class       volScalarField;
    location    "0.2";
    object      p;
}
// * * * * * * * * * * * * * * * * * * * * * * * * * * * * * * * * * * * * * //

dimensions      [1 -1 -2 0 0 0 0];

internalField   nonuniform List<scalar> 
4800
(
1
1
1
1
1
1
1
1
1
1
1
1
1
1
1
1
1
1
1
1
1
1
1
1
1
1
1
1
1
1
1
1
1
1
1
1
1
1
1
1
1
1
1
1
1
1
1
1
1
1
1
1
1
1
1
1
1
1
1
1
1
1
1
1
1
1
1
1
1
1
1
1
1
1
1
1
1
1
1
1
1
1
1
1
1
1
1
1
1
1
1
1
1
1
1
1
1
1
1
1
1
1
1
1
1
1
1
1
1
1
1
1
1
1
1
1
1
1
1
1
1
1
1
1
1
1
1
1
1
1
1
1
1
1
1
1
1
1
1
1
1
1
1
1
1
1
1
1
1
1
1
1
1
1
1
1
1
1
1
1
1
1
1
1
1
1
1
1
1
1
1
1
1
1
1
1
1
1
1
1
1
1
1
1
1
1
1
1
1
1
1
1
1
1
1
1
1
1
1
1
1
1
1
1
1
1
1
1
1
1
1
1
1
1
1
1
1
1
1
1
1
1
1
1
1
1
1
1
1
1
1
1
1
1
1
1
1
1
1
1
1
1
1
1
1
1
1
1
1
1
1
1
1
1
1
1
1
1
1
1
1
1
1
1
1
1
1
1
1
1
1
1
1
1
1
1
1
1
1
1
1
1
1
1
1
1
1
1
1
1
1
1
1
1
1
1
1
1
1
1
1
1
1
1
1
1
1
1
1
1
1
1
1
1
1
1
1
1
1
1
1
1
1
1
1
1
1
1
1
1
1
1
1
1
1
1
1
1
1
1
1
1
1
1
1
1
1
1
1
1
1
1
1
1
1
1
1
1
1
1
1
1
1
1
1
1
1
1
1
1
1
1
1
1
1
1
1
1
1
1
1
1
1
1
1
1
1
1
1
1
1
1
1
1
1
1
1
1
1
1
1
1
1
1
1
1
1
1
1
1
1
1
1
1
1
1
1
1
1
1
1
1
1
1
1
1
1
1
1
1
1
1
1
1
1
1
1
1
1
1
1
1
1
1
1
1
1
1
1
1
1
1
1
1
1
1
1
1
1
1
1
1
1
1
1
1
1
1
1
1
1
1
1
1
1
1
1
1
1
1
1
1
1
1
1
1
1
1
1
1
1
1
1
1
1
1
1
1
1
1
1
1
1
1
1
1
1
1
1
1
1
1
1
1
1
1
1
1
1
1
1
1
1
1
1
1
1
1
1
1
1
1
1
1
1
1
1
1
1
1
1
1
1
1
1
1
1
1
1
1
1
1
1
1
1
1
1
1
1
1
1
1
1
1
1
1
1
1
1
1
1
1
1
1
1
1
1
1
1
1
1
1
1
1
1
1
1
1
1
1
1
1
1
1
1
1
1
1
1
1
1
1
1
1
1
1
1
1
1
1
1
1
1
1
1
1
1
1
1
1
1
1
1
1
1
1
1
1
1
1
1
1
1
1
1
1
1
1
1
1
1
1
1
1
1
1
1
1
1
1
1
1
1
1
1
1
1
1
1
1
1
1
1
1
1
1
1
1
1
1
1
1
1
1
1
1
1
1
1
1
1
1
1
1
1
1
1
1
1
1
1
1
1
1
1
1
1
1
1
1
1
1
1
1
1
1
1
1
1
1
1
1
1
1
1
1
1
1
1
1
1
1
1
1
1
1
1
1
1
1
1
1
1
1
1
1
1
1
1
1
1
1
1
1
1
1
1
1
1
1
1
1
1
1
1
1
1
1
1
1
1
1
1
1
1
1
1
1
1
1
1
1
1
1
1
1
1
1
1
1
1
1
1
1
1
1
1
1
1
1
1
1
1
1
1
1
1
1
1
1
1
1
1
1
1
1
1
1
1
1
1
1
1
1
1
1
1
1
1
1
1
1
1
1
1
1
1
1
1
1
1
1
1
1
1
1
1
1
1
1
1
1
1
1
1
1
1
1
1
1
1
1
1
1
1
1
1
1
1
1
1
1
1
1
1
1
1
1
1
1
1
1
1
1
1
1
1
1
1
1
1
1
1
1
1
1
1
1
1
1
1
1
1
1
1
1
1
1
1
1
1
1
1
1
1
1
1
1
1
1
1
1
1
1
1
1
1
1
1
1
1
1
1
1
1
1
1
1
1
1
1
1
1
1
1
1
1
1
1
1
1
1
1
1
1
1
1
1
1
1
1
1
1
1
1
1
1
1
1
1
1
1
1
1
1
1
1
1
1
1
1
1
1
1
1
1
1
1
1
1
1
1
1
1
1
1
1
1
1
1
1
1
1
1
1
1
1
1
1
1
1
1
1
1
1
1
1
1
1
1
1
1
1
1
1
1
1
1
1
1
1
1
1
1
1
1
1
1
1
1
1
1
1
1
1
1
1
1
1
1
1
1
1
1
1
1
1
1
1
1
1
1
1
1
1
1
1
1
1
1
1
1
1
1
1
1
1
1
1
1
1
1
1
1
1
1
1
1
1
1
1
1
1
1
1
1
1
1
1
1
1
1
1
1
1
1
1
1
1
1
1
1
1
1
1
1
1
1
1
1
1
1
1
1
1
1
1
1
1
1
1
1
1
1
1
1
1
1
1
1
1
1
1
1
1
1
1
1
1
1
1
1
1
1
1
1
1
1
1
1
1
1
1
1
1
1
1
1
1
1
1
1
1
1
1
1
1
1
1
1
1
1
1
1
1
1
1
1
1
1
1
1
1
1
1
1
1
1
1
1
1
1
1
1
1
1
1
1
1
1
1
1
1
1
1
1
1
1
1
1
1
1
1
1
1
1
1
1
1
1
1
1
1
1
1
1
1
1
1
1
1
1
1
1
1
1
1
1
1
1
1
1
1
1
1
1
1
1
1
1
1
1
1
1
1
1
1
1
1
1
1
1
1
1
1
1
1
1
1
1
1
1
1
1
1
1
1
1
1
1
1
1
1
1
1
1
1
1
1
1
1
1
1
1
1
1
1
1
1
1
1
1
1
1
1
1
1
1
1
1
1
1
1
1
1
1
1
1
1
1
1
1
1
1
1
1
1
1
1
1
1
1
1
1
1
1
1
1
1
1
1
1
1
1
1
1
1
1
1
1
1
1
1
1
1
1
1
1
1
1
1
1
1
1
1
1
1
1
1
1
1
1
1
1
1
1
1
1
1
1
1
1
1
1
1
1
1
1
1
1
1
1
1
1
1
1
1
1
1
1
1
1
1
1
1
1
1
1
1
1
1
1
1
1
1
1
1
1
1
1
1
1
1
1
1
1
1
1
1
1
1
1
1
1
1
1
1
1
1
1
1
1
1
1
1
1
1
1
1
1
1
1
1
1
1
1
1
1
1
1
1
1
1
1
1
1
1
1
1
1
1
1
1
1
1
1
1
1
1
1
1
1
1
1
1
1
1
1
1
1
1
1
1
1
1
1
1
1
1
1
1
1
1
1
1
1
1
1
1
1
1
1
1
1
1
1
1
1
1
1
1
1
1
1
1
1
1
1
1
1
1
1
1
1
1
1
1
1
1
1
1
1
1
1
1
1
1
1
1
1
1
1
1
1
1
1
1
1
1
1
1
1
1
1
1
1
1
1
1
1
1
1
1
1
1
1
1
1
1
1
1
1
1
1
1
1
1
1
1
1
1
1
1
1
1
1
1
1
1
1
1.27244
1.68905
2.21782
2.68597
3.15323
3.65368
3.98645
4.23858
4.36129
4.29104
4.10798
3.80164
3.46914
3.29335
3.20252
3.12339
3.0994
3.10841
3.14037
3.17676
3.21381
3.22547
3.21994
3.2114
3.21248
3.22024
3.23109
3.2408
3.25042
3.25682
3.25667
3.25631
3.25402
3.24791
3.24723
3.24809
3.25069
3.25638
3.26149
3.26343
3.26338
3.26123
3.25635
3.25224
3.2514
3.25193
3.25285
3.25383
3.25471
3.25487
3.25431
3.25327
3.25231
3.25212
3.25224
3.25253
3.25352
3.2551
3.25588
3.25604
3.25594
3.25493
3.25349
3.25311
3.25322
3.25367
3.25486
3.25701
3.25905
3.25977
3.25992
3.25994
3.25946
3.25832
3.25769
3.25756
3.2576
3.25824
3.25937
3.2595
1.00489
1.02711
1.07799
1.22527
1.4108
1.69185
2.04782
2.41846
2.78587
3.06864
3.23421
3.35801
3.42978
3.43931
3.40328
3.34686
3.30983
3.26229
3.23476
3.20863
3.18913
3.19506
3.19875
3.20628
3.21809
3.23069
3.2369
3.24166
3.24662
3.24869
3.24799
3.24659
3.24429
3.24122
3.24143
3.24271
3.24559
3.25055
3.25344
3.25454
3.2556
3.25526
3.25372
3.25215
3.25255
3.25416
3.25636
3.25835
3.25914
3.25899
3.25845
3.25727
3.2557
3.25525
3.25539
3.25584
3.25676
3.25793
3.25834
3.25836
3.25805
3.25678
3.25491
3.254
3.25397
3.25429
3.25505
3.2564
3.25768
3.25801
3.25799
3.25777
3.25712
3.25625
3.25602
3.25604
3.25628
3.25686
3.25757
3.25754
1
1
1.00009
1.00134
1.00609
1.02561
1.08466
1.23048
1.51496
2.01517
2.71206
3.18198
3.5243
3.63374
3.61931
3.57846
3.50196
3.40649
3.2492
3.19487
3.1859
3.19016
3.20961
3.2255
3.22841
3.22885
3.23098
3.23551
3.24422
3.24983
3.25138
3.25079
3.24962
3.24657
3.2435
3.24288
3.24364
3.24497
3.24498
3.24482
3.24497
3.24614
3.24757
3.24873
3.24993
3.25187
3.25515
3.25903
3.26051
3.26052
3.26029
3.2593
3.25766
3.25716
3.25739
3.25792
3.25907
3.26037
3.2607
3.26069
3.26033
3.25916
3.25731
3.25623
3.25618
3.25639
3.25691
3.25787
3.2585
3.25843
3.25824
3.25775
3.25672
3.25588
3.25582
3.25586
3.25604
3.25663
3.25709
3.25692
1
1
1
0.999998
1
1
1.00014
1.00135
1.00969
1.06034
1.25789
1.7316
2.32777
2.96182
3.19177
3.3825
3.37357
3.33657
3.3484
3.34704
3.32725
3.28186
3.2606
3.23299
3.20916
3.19965
3.20651
3.22279
3.24291
3.25329
3.2555
3.25585
3.25507
3.25255
3.24837
3.24773
3.24943
3.25119
3.25029
3.24919
3.2479
3.24573
3.24569
3.24676
3.24776
3.24882
3.251
3.25427
3.25566
3.25588
3.25602
3.25538
3.25386
3.25374
3.2545
3.25593
3.25831
3.26055
3.26121
3.26129
3.26107
3.26042
3.25889
3.25765
3.25765
3.25783
3.25821
3.2592
3.25964
3.25945
3.25913
3.25843
3.25708
3.25661
3.25677
3.25691
3.25728
3.25796
3.25791
3.25741
1
1
1
1
1
1
1
1
0.999995
1.00004
1.00156
1.02613
1.1264
1.45058
1.99931
2.61838
3.11606
3.31079
3.46365
3.45693
3.4323
3.38329
3.27927
3.19026
3.1822
3.19018
3.20244
3.21576
3.23067
3.23603
3.24091
3.24703
3.25002
3.251
3.25309
3.25713
3.26133
3.26394
3.26354
3.26184
3.25818
3.25188
3.24953
3.25008
3.25079
3.25108
3.25178
3.25372
3.2543
3.25434
3.25405
3.25247
3.25042
3.25
3.25028
3.25115
3.25324
3.25585
3.25702
3.25715
3.25684
3.25632
3.25546
3.25504
3.25541
3.25595
3.25668
3.25801
3.25871
3.25855
3.25824
3.25767
3.25677
3.25667
3.25695
3.25741
3.25842
3.25929
3.25903
3.25818
1
1
1
1
1
1
1
1
1
0.999999
1
0.999998
1.00037
1.00686
1.06966
1.24609
1.72064
2.29015
2.89814
3.20018
3.25602
3.29156
3.29765
3.24965
3.23447
3.24219
3.23402
3.23148
3.22357
3.20741
3.20381
3.20917
3.21978
3.23253
3.24353
3.25595
3.26548
3.27024
3.27125
3.26983
3.26531
3.25777
3.25417
3.25372
3.25352
3.25399
3.25609
3.25781
3.25784
3.25718
3.25554
3.25345
3.25143
3.25055
3.25039
3.25061
3.25205
3.25448
3.25596
3.25595
3.25519
3.2543
3.25327
3.25309
3.25347
3.25401
3.25478
3.25613
3.25696
3.25668
3.25619
3.2557
3.25539
3.25529
3.25545
3.25616
3.25779
3.25921
3.25927
3.25841
1
1
1
1
1
1
1
1
1
1
1
1
1
0.999993
1.00012
1.00198
1.02706
1.16253
1.46403
2.02795
2.57064
3.10255
3.27229
3.32016
3.3252
3.31456
3.28768
3.25866
3.23447
3.20147
3.19045
3.19125
3.19729
3.20963
3.22165
3.23293
3.24433
3.2537
3.2614
3.26253
3.26058
3.25657
3.25274
3.25178
3.25205
3.25453
3.25876
3.26049
3.26111
3.26124
3.26009
3.25737
3.25484
3.25405
3.25406
3.25498
3.25709
3.25891
3.25967
3.25918
3.25796
3.25645
3.25504
3.25471
3.25472
3.25494
3.25573
3.25718
3.2577
3.25723
3.25636
3.25567
3.25539
3.25515
3.2552
3.25593
3.25747
3.25895
3.2595
3.25872
1
1
1
1
1
1
1
1
1
1
1
1
1
1
1
0.999998
1.00001
1.00098
1.00913
1.08827
1.32422
1.77679
2.35281
2.82721
3.20675
3.24873
3.26106
3.29521
3.28381
3.25265
3.23791
3.22731
3.2157
3.21305
3.21529
3.22058
3.22872
3.2367
3.24305
3.24432
3.24235
3.23998
3.23967
3.24057
3.24229
3.24613
3.25245
3.25631
3.25842
3.26001
3.26035
3.25856
3.25721
3.257
3.25722
3.25851
3.26079
3.26283
3.26339
3.26274
3.26117
3.25899
3.25691
3.25605
3.25573
3.2556
3.25644
3.25815
3.25864
3.2582
3.25701
3.25589
3.25539
3.25499
3.2549
3.25557
3.25698
3.25861
3.2597
3.2595
1
1
1
1
1
1
1
1
1
1
1
1
1
1
1
1
1
1
0.999995
1.00034
1.00506
1.0372
1.23253
1.60211
2.17803
2.62425
3.03673
3.24357
3.2815
3.29359
3.29026
3.28241
3.26386
3.24663
3.23575
3.23683
3.24111
3.24061
3.23449
3.23357
3.2336
3.23436
3.23725
3.23832
3.2384
3.2397
3.24447
3.24968
3.25119
3.25144
3.25171
3.25164
3.25214
3.25296
3.25429
3.25659
3.25903
3.26139
3.26276
3.26248
3.26104
3.25855
3.25622
3.25533
3.25509
3.2552
3.25672
3.25855
3.25876
3.25839
3.2576
3.25633
3.25527
3.25477
3.25458
3.25489
3.25578
3.25712
3.25801
3.25831
1
1
1
1
1
1
1
1
1
1
1
1
1
1
1
1
1
1
1
1
0.999997
1.00006
1.00296
1.02233
1.13256
1.47133
1.97373
2.52884
2.85833
3.11045
3.22161
3.2587
3.27434
3.27146
3.26019
3.26076
3.26498
3.26465
3.26233
3.26004
3.25531
3.2507
3.25227
3.25309
3.25108
3.2486
3.24872
3.25028
3.25008
3.24953
3.24778
3.24624
3.24615
3.24694
3.2492
3.2529
3.25601
3.25782
3.25835
3.25791
3.25655
3.25513
3.25447
3.25452
3.25463
3.25531
3.25742
3.25968
3.2601
3.25996
3.25942
3.25803
3.25654
3.25568
3.25506
3.25477
3.25514
3.25603
3.25627
3.2565
1
1
1
1
1
1
1
1
1
1
1
1
1
1
1
1
1
1
1
1
1
1
0.999998
1.00002
1.00101
1.01549
1.07941
1.36179
1.85931
2.4707
2.7762
3.01485
3.17953
3.21889
3.22486
3.23595
3.26073
3.26362
3.26169
3.25957
3.25846
3.25792
3.26286
3.2687
3.27165
3.27078
3.27008
3.26781
3.26258
3.25791
3.25383
3.24956
3.24776
3.24748
3.24824
3.25113
3.25422
3.25574
3.25632
3.25595
3.25411
3.25244
3.252
3.25241
3.2529
3.25397
3.25649
3.25892
3.25938
3.2594
3.25921
3.25829
3.25673
3.25573
3.25511
3.25487
3.25514
3.2555
3.25544
3.25576
1
1
1
1
1
1
1
1
1
1
1
1
1
1
1
1
1
1
1
1
1
1
1
1
0.999999
1.00001
1.00042
1.0103
1.06746
1.27265
1.73828
2.32685
2.83018
2.99479
3.10367
3.13756
3.18143
3.2064
3.21228
3.2249
3.23463
3.23776
3.24242
3.25071
3.26162
3.26903
3.27099
3.27007
3.26644
3.26209
3.25945
3.25714
3.25613
3.25623
3.25663
3.25768
3.25921
3.25964
3.25936
3.25797
3.25481
3.25161
3.2501
3.25065
3.25163
3.253
3.25554
3.258
3.25831
3.25806
3.25764
3.25691
3.25655
3.25644
3.25647
3.25659
3.25622
3.25582
3.25587
3.2559
1
1
1
1
1
1
1
1
1
1
1
1
1
1
1
1
1
1
1
1
1
1
1
1
1
1
0.999999
1.00001
1.00034
1.00541
1.05562
1.21217
1.64919
2.23458
2.8562
3.07805
3.13404
3.19566
3.19325
3.20322
3.20509
3.20248
3.20532
3.21395
3.22807
3.24163
3.24837
3.25197
3.25487
3.25594
3.25508
3.25327
3.25347
3.25431
3.25646
3.25838
3.26003
3.2617
3.26246
3.26164
3.25925
3.25652
3.25417
3.25404
3.25506
3.25598
3.25745
3.25795
3.25723
3.2564
3.25602
3.25537
3.25531
3.2556
3.25619
3.25745
3.25779
3.25751
3.25661
3.2558
1
1
1
1
1
1
1
1
1
1
1
1
1
1
1
1
1
1
1
1
1
1
1
1
1
1
1
1
1
0.999999
1.00027
1.00342
1.04478
1.20758
1.62738
2.20646
2.76693
3.11995
3.19545
3.24033
3.24263
3.22119
3.21911
3.21935
3.2196
3.22747
3.23388
3.23742
3.23899
3.23987
3.24079
3.24263
3.24607
3.24872
3.25214
3.25461
3.25602
3.25799
3.25972
3.25926
3.2578
3.25635
3.25524
3.25595
3.2573
3.25886
3.26028
3.26035
3.25922
3.25722
3.25493
3.25369
3.25407
3.25461
3.25553
3.25743
3.25893
3.25957
3.25961
3.25795
1
1
1
1
1
1
1
1
1
1
1
1
1
1
1
1
1
1
1
1
1
1
1
1
1
1
1
1
1
1
1
0.999998
1.00024
1.00366
1.03824
1.21989
1.60346
2.19492
2.74896
3.10679
3.20787
3.23922
3.2674
3.27733
3.27027
3.26294
3.2576
3.25512
3.25103
3.24715
3.24414
3.24275
3.24421
3.24662
3.24885
3.24974
3.25091
3.25285
3.2542
3.25361
3.25263
3.25194
3.25219
3.25374
3.25549
3.25773
3.25895
3.25943
3.25933
3.25786
3.25482
3.25299
3.25329
3.25386
3.25462
3.25631
3.25827
3.25981
3.26062
3.26003
1
1
1
1
1
1
1
1
1
1
1
1
1
1
1
1
1
1
1
1
1
1
1
1
1
1
1
1
1
1
1
1
1
0.999999
1.00019
1.00439
1.03486
1.23094
1.65526
2.23853
2.7201
3.06115
3.20273
3.25637
3.27904
3.28419
3.27938
3.27767
3.27531
3.27104
3.26621
3.26156
3.25926
3.25859
3.25825
3.25652
3.25634
3.25596
3.25384
3.25162
3.25006
3.24871
3.2496
3.25151
3.25352
3.25525
3.25609
3.25679
3.25742
3.25675
3.25442
3.25265
3.25249
3.25293
3.25353
3.25461
3.25614
3.25806
3.25969
3.25991
1
1
1
1
1
1
1
1
1
1
1
1
1
1
1
1
1
1
1
1
1
1
1
1
1
1
1
1
1
1
1
1
1
1
1
1
1.00017
1.00574
1.04129
1.24851
1.74929
2.39331
2.77935
3.02916
3.15826
3.22237
3.23551
3.24631
3.25601
3.25905
3.26025
3.26151
3.26266
3.26461
3.26572
3.26366
3.26161
3.25998
3.25858
3.25723
3.25489
3.25277
3.25261
3.25386
3.25468
3.25485
3.25484
3.25501
3.25554
3.25542
3.25454
3.25426
3.25455
3.25499
3.25499
3.25451
3.25467
3.25624
3.25796
3.25842
1
1
1
1
1
1
1
1
1
1
1
1
1
1
1
1
1
1
1
1
1
1
1
1
1
1
1
1
1
1
1
1
1
1
1
1
1
1
1.00025
1.00802
1.06402
1.30111
1.84369
2.55944
2.94843
3.08057
3.15347
3.17628
3.19691
3.21228
3.22339
3.22941
3.23553
3.24428
3.25206
3.25462
3.25413
3.25487
3.25614
3.25659
3.25547
3.25471
3.25616
3.25724
3.25703
3.25641
3.25555
3.25462
3.25367
3.25261
3.25281
3.25492
3.25712
3.25817
3.25844
3.25751
3.25608
3.25589
3.2568
3.2568
1
1
1
1
1
1
1
1
1
1
1
1
1
1
1
1
1
1
1
1
1
1
1
1
1
1
1
1
1
1
1
1
1
1
1
1
1
1
1
1.00002
1.00057
1.01135
1.09819
1.39653
1.99924
2.67594
3.10291
3.17386
3.21188
3.22205
3.2255
3.22697
3.22849
3.23298
3.23823
3.23993
3.23926
3.23941
3.2413
3.24464
3.24966
3.25467
3.25772
3.25821
3.25787
3.2577
3.25718
3.25488
3.25192
3.25032
3.25123
3.25352
3.25747
3.25995
3.26072
3.26079
3.25924
3.25698
3.25585
3.25505
1
1
1
1
1
1
1
1
1
1
1
1
1
1
1
1
1
1
1
1
1
1
1
1
1
1
1
1
1
1
1
1
1
1
1
1
1
1
1
1
0.999999
1.00004
1.00138
1.01907
1.15942
1.55349
2.2222
2.81821
3.11636
3.27426
3.27898
3.26997
3.2676
3.26398
3.25853
3.25259
3.24852
3.2439
3.2409
3.24261
3.24693
3.25223
3.25673
3.25909
3.25933
3.25943
3.25915
3.25592
3.2502
3.24798
3.2487
3.25116
3.25648
3.2598
3.26098
3.26159
3.26091
3.25831
3.25518
3.25319
1
1
1
1
1
1
1
1
1
1
1
1
1
1
1
1
1
1
1
1
1
1
1
1
1
1
1
1
1
1
1
1
1
1
1
1
1
1
1
1
1
1
0.999999
1.00011
1.00357
1.03951
1.27034
1.79423
2.41046
2.91945
3.18361
3.24665
3.26869
3.27871
3.27518
3.26958
3.26803
3.26396
3.25412
3.24993
3.25234
3.25664
3.25926
3.26038
3.26074
3.26153
3.26225
3.26082
3.25531
3.25007
3.24851
3.24915
3.25214
3.25652
3.25942
3.26053
3.26108
3.25957
3.25551
3.25195
1
1
1
1
1
1
1
1
1
1
1
1
1
1
1
1
1
1
1
1
1
1
1
1
1
1
1
1
1
1
1
1
1
1
1
1
1
1
1
1
1
1
1
1
1
1.0004
1.00983
1.08284
1.4397
2.11315
2.68994
2.99129
3.14765
3.22833
3.22727
3.23333
3.2507
3.25802
3.25546
3.25208
3.25434
3.25743
3.25821
3.25752
3.2574
3.25953
3.26178
3.26253
3.26065
3.25705
3.25348
3.25137
3.25105
3.25392
3.25788
3.26042
3.26154
3.26087
3.2566
3.25126
1
1
1
1
1
1
1
1
1
1
1
1
1
1
1
1
1
1
1
1
1
1
1
1
1
1
1
1
1
1
1
1
1
1
1
1
1
1
1
1
1
1
1
1
1
1
1.00003
1.00152
1.02953
1.17886
1.70214
2.45932
3.02657
3.1335
3.16777
3.1897
3.21691
3.23559
3.23625
3.23817
3.24444
3.24987
3.25063
3.24836
3.24705
3.2481
3.25213
3.25649
3.25836
3.25713
3.25604
3.25425
3.2526
3.25395
3.25713
3.2602
3.26204
3.26154
3.25788
3.25172
1
1
1
1
1
1
1
1
1
1
1
1
1
1
1
1
1
1
1
1
1
1
1
1
1
1
1
1
1
1
1
1
1
1
1
1
1
1
1
1
1
1
1
1
1
1
1
1
1.00026
1.0055
1.08618
1.39687
2.0638
2.78417
3.15185
3.22271
3.25171
3.25617
3.24529
3.24661
3.25387
3.25606
3.25515
3.25088
3.24692
3.24415
3.24305
3.24371
3.24653
3.25098
3.25424
3.25493
3.25453
3.25531
3.25777
3.26012
3.26129
3.26061
3.25739
3.25284
1
1
1
1
1
1
1
1
1
1
1
1
1
1
1
1
1
1
1
1
1
1
1
1
1
1
1
1
1
1
1
1
1
1
1
1
1
1
1
1
1
1
1
1
1
1
1
1
1
1.00002
1.0018
1.02489
1.2131
1.74082
2.45518
2.95687
3.2154
3.25082
3.24045
3.26186
3.27652
3.27772
3.27647
3.2713
3.26839
3.26045
3.2485
3.24485
3.24522
3.2475
3.25242
3.25637
3.25812
3.25846
3.25858
3.25888
3.25898
3.2582
3.25621
3.25346
1
1
1
1
1
1
1
1
1
1
1
1
1
1
1
1
1
1
1
1
1
1
1
1
1
1
1
1
1
1
1
1
1
1
1
1
1
1
1
1
1
1
1
1
1
1
1
1
1
1
1
1.00026
1.0083
1.08393
1.5189
2.19884
2.93065
3.05631
3.10174
3.18846
3.23699
3.25352
3.25907
3.26845
3.27702
3.27604
3.26339
3.25172
3.24802
3.24778
3.2523
3.25937
3.26244
3.26298
3.26178
3.25936
3.25685
3.25415
3.25298
3.25376
1
1
1
1
1
1
1
1
1
1
1
1
1
1
1
1
1
1
1
1
1
1
1
1
1
1
1
1
1
1
1
1
1
1
1
1
1
1
1
1
1
1
1
1
1
1
1
1
1
1
1
1
1.00004
1.00211
1.04748
1.27978
1.8892
2.7614
3.08326
3.17698
3.18497
3.20134
3.20935
3.22793
3.25367
3.26465
3.26142
3.25301
3.24617
3.24555
3.24938
3.25786
3.26332
3.26426
3.26363
3.26131
3.25701
3.25265
3.25125
3.252
1
1
1
1
1
1
1
1
1
1
1
1
1
1
1
1
1
1
1
1
1
1
1
1
1
1
1
1
1
1
1
1
1
1
1
1
1
1
1
1
1
1
1
1
1
1
1
1
1
1
1
1
1
1.00001
1.00073
1.01674
1.13302
1.70457
2.53981
3.01421
3.23044
3.2412
3.23251
3.24394
3.25147
3.25096
3.25431
3.2525
3.24864
3.24563
3.24705
3.25059
3.256
3.26147
3.26274
3.26112
3.25828
3.25378
3.25131
3.25178
1
1
1
1
1
1
1
1
1
1
1
1
1
1
1
1
1
1
1
1
1
1
1
1
1
1
1
1
1
1
1
1
1
1
1
1
1
1
1
1
1
1
1
1
1
1
1
1
1
1
1
1
1
1
1
1.00018
1.00466
1.10101
1.55643
2.20367
2.96801
3.18251
3.22655
3.26063
3.26396
3.26392
3.26092
3.26162
3.2644
3.2598
3.2503
3.24872
3.25028
3.25559
3.25931
3.2597
3.2579
3.2549
3.25183
3.25148
1
1
1
1
1
1
1
1
1
1
1
1
1
1
1
1
1
1
1
1
1
1
1
1
1
1
1
1
1
1
1
1
1
1
1
1
1
1
1
1
1
1
1
1
1
1
1
1
1
1
1
1
1
1
1
1
1.00004
1.00357
1.05413
1.33944
2.09136
2.83104
3.03998
3.15084
3.22133
3.2331
3.21732
3.22895
3.25601
3.26631
3.26241
3.25823
3.25618
3.25615
3.25687
3.2572
3.25677
3.25502
3.25158
3.25244
1
1
1
1
1
1
1
1
1
1
1
1
1
1
1
1
1
1
1
1
1
1
1
1
1
1
1
1
1
1
1
1
1
1
1
1
1
1
1
1
1
1
1
1
1
1
1
1
1
1
1
1
1
1
1
1
1
1.00002
1.00112
1.02689
1.20655
1.94526
2.67531
3.1224
3.26859
3.2588
3.21017
3.21343
3.23571
3.25522
3.25987
3.25876
3.25904
3.25886
3.25648
3.25541
3.25508
3.25288
3.2496
3.26409
1
1
1
1
1
1
1
1
1
1
1
1
1
1
1
1
1
1
1
1
1
1
1
1
1
1
1
1
1
1
1
1
1
1
1
1
1
1
1
1
1
1
1
1
1
1
1
1
1
1
1
1
1
1
1
1
1
1
1
1.00044
1.01183
1.19991
1.77191
2.50005
3.14726
3.25581
3.24603
3.25115
3.25211
3.24408
3.25018
3.25524
3.26145
3.26226
3.2578
3.25523
3.25411
3.25211
3.24932
3.39487
1
1
1
1
1
1
1
1
1
1
1
1
1
1
1
1
1
1
1
1
1
1
1
1
1
1
1
1
1
1
1
1
1
1
1
1
1
1
1
1
1
1
1
1
1
1
1
1
1
1
1
1
1
1
1
1
1
1
1
1
1.00023
1.01113
1.14211
1.57296
2.50323
2.93056
3.12648
3.2482
3.27864
3.25984
3.24934
3.2575
3.26204
3.25842
3.25277
3.25095
3.25196
3.25478
3.26381
4.07522
1
1
1
1
1
1
1
1
1
1
1
1
1
1
1
1
1
1
1
1
1
1
1
1
1
1
1
1
1
1
1
1
1
1
1
1
1
1
1
1
1
1
1
1
1
1
1
1
1
1
1
1
1
1
1
1
1
1
1
1
1
1.00015
1.00687
1.07077
1.46962
2.40937
2.96322
3.22408
3.27518
3.25694
3.23819
3.24722
3.2577
3.24941
3.23794
3.2342
3.23811
3.26263
3.49264
5.68908
1
1
1
1
1
1
1
1
1
1
1
1
1
1
1
1
1
1
1
1
1
1
1
1
1
1
1
1
1
1
1
1
1
1
1
1
1
1
1
1
1
1
1
1
1
1
1
1
1
1
1
1
1
1
1
1
1
1
1
1
1
1
1.00006
1.00255
1.05416
1.56195
2.33652
2.92781
3.2179
3.26868
3.27999
3.27605
3.27583
3.26666
3.22857
3.21994
3.23625
3.58878
5.00294
7.33949
1
1
1
1
1
1
1
1
1
1
1
1
1
1
1
1
1
1
1
1
1
1
1
1
1
1
1
1
1
1
1
1
1
1
1
1
1
1
1
1
1
1
1
1
1
1
1
1
1
1
1
1
1
1
1
1
1
1
1
1
1
1
1
1.00003
1.00272
1.08048
1.5044
2.19018
2.95398
3.12125
3.20319
3.24076
3.26185
3.27623
3.26501
3.30003
3.71318
5.3837
7.48
8.3422
1
1
1
1
1
1
1
1
1
1
1
1
1
1
1
1
1
1
1
1
1
1
1
1
1
1
1
1
1
1
1
1
1
1
1
1
1
1
1
1
1
1
1
1
1
1
1
1
1
1
1
1
1
1
1
1
1
1
1
1
1
1
1
1
1.00005
1.00371
1.06284
1.33843
2.18246
3.06214
3.11145
3.11818
3.13911
3.20421
3.32994
4.03743
5.80225
7.42705
8.14122
8.39671
1
1
1
1
1
1
1
1
1
1
1
1
1
1
1
1
1
1
1
1
1
1
1
1
1
1
1
1
1
1
1
1
1
1
1
1
1
1
1
1
1
1
1
1
1
1
1
1
1
1
1
1
1
1
1
1
1
1
1
1
1
1
1
1
1
1.00004
1.0019
1.03693
1.33038
2.28054
3.06737
3.0836
3.14062
3.34259
4.23299
6.22052
7.93337
8.38949
8.35862
8.33887
1
1
1
1
1
1
1
1
1
1
1
1
1
1
1
1
1
1
1
1
1
1
1
1
1
1
1
1
1
1
1
1
1
1
1
1
1
1
1
1
1
1
1
1
1
1
1
1
1
1
1
1
1
1
1
1
1
1
1
1
1
1
1
1
1
1
1.00001
1.00161
1.03907
1.44434
2.41826
2.90566
3.69714
4.65009
6.4163
7.43991
8.38248
8.46006
8.35382
8.23264
1
1
1
1
1
1
1
1
1
1
1
1
1
1
1
1
1
1
1
1
1
1
1
1
1
1
1
1
1
1
1
1
1
1
1
1
1
1
1
1
1
1
1
1
1
1
1
1
1
1
1
1
1
1
1
1
1
1
1
1
1
1
1
1
1
1
1
1.00004
1.00187
1.07604
1.55648
2.93953
4.82989
7.39959
9.16235
9.00626
8.73943
8.46301
8.25421
8.1481
)
;

boundaryField
{
    inlet
    {
        type            fixedValue;
        value           uniform 1;
    }
    outlet
    {
        type            zeroGradient;
    }
    bottom
    {
        type            symmetryPlane;
    }
    top
    {
        type            symmetryPlane;
    }
    obstacle
    {
        type            zeroGradient;
    }
    defaultFaces
    {
        type            empty;
    }
}


// ************************************************************************* //
