/*--------------------------------*- C++ -*----------------------------------*\
| =========                 |                                                 |
| \\      /  F ield         | OpenFOAM: The Open Source CFD Toolbox           |
|  \\    /   O peration     | Version:  2206                                  |
|   \\  /    A nd           | Website:  www.openfoam.com                      |
|    \\/     M anipulation  |                                                 |
\*---------------------------------------------------------------------------*/
FoamFile
{
    version     2.0;
    format      ascii;
    arch        "LSB;label=32;scalar=64";
    class       volScalarField;
    location    "0.1";
    object      p;
}
// * * * * * * * * * * * * * * * * * * * * * * * * * * * * * * * * * * * * * //

dimensions      [1 -1 -2 0 0 0 0];

internalField   nonuniform List<scalar> 
4800
(
1
1
1
1
1
1
1
1
1
1
1
1
1
1
1
1
1
1
1
1
1
1
1
1
1
1
1
1
1
1
1
1
1
1
1
1
1
1
1
1
1
1
1
1
1
1
1
1
1
1
1
1
1
1
1
1
1
1
1
1
1
1
1
1
1
1
1
1
1
1
1
1
1
1
1
1
1
1
1
1
1
1
1
1
1
1
1
1
1
1
1
1
1
1
1
1
1
1
1
1
1
1
1
1
1
1
1
1
1
1
1
1
1
1
1
1
1
1
1
1
1
1
1
1
1
1
1
1
1
1
1
1
1
1
1
1
1
1
1
1
1
1
1
1
1
1
1
1
1
1
1
1
1
1
1
1
1
1
1
1
1
1
1
1
1
1
1
1
1
1
1
1
1
1
1
1
1
1
1
1
1
1
1
1
1
1
1
1
1
1
1
1
1
1
1
1
1
1
1
1
1
1
1
1
1
1
1
1
1
1
1
1
1
1
1
1
1
1
1
1
1
1
1
1
1
1
1
1
1
1
1
1
1
1
1
1
1
1
1
1
1
1
1
1
1
1
1
1
1
1
1
1
1
1
1
1
1
1
1
1
1
1
1
1
1
1
1
1
1
1
1
1
1
1
1
1
1
1
1
1
1
1
1
1
1
1
1
1
1
1
1
1
1
1
1
1
1
1
1
1
1
1
1
1
1
1
1
1
1
1
1
1
1
1
1
1
1
1
1
1
1
1
1
1
1
1
1
1
1
1
1
1
1
1
1
1
1
1
1
1
1
1
1
1
1
1
1
1
1
1
1
1
1
1
1
1
1
1
1
1
1
1
1
1
1
1
1
1
1
1
1
1
1
1
1
1
1
1
1
1
1
1
1
1
1
1
1
1
1
1
1
1
1
1
1
1
1
1
1
1
1
1
1
1
1
1
1
1
1
1
1
1
1
1
1
1
1
1
1
1
1
1
1
1
1
1
1
1
1
1
1
1
1
1
1
1
1
1
1
1
1
1
1
1
1
1
1
1
1
1
1
1
1
1
1
1
1
1
1
1
1
1
1
1
1
1
1
1
1
1
1
1
1
1
1
1
1
1
1
1
1
1
1
1
1
1
1
1
1
1
1
1
1
1
1
1
1
1
1
1
1
1
1
1
1
1
1
1
1
1
1
1
1
1
1
1
1
1
1
1
1
1
1
1
1
1
1
1
1
1
1
1
1
1
1
1
1
1
1
1
1
1
1
1
1
1
1
1
1
1
1
1
1
1
1
1
1
1
1
1
1
1
1
1
1
1
1
1
1
1
1
1
1
1
1
1
1
1
1
1
1
1
1
1
1
1
1
1
1
1
1
1
1
1
1
1
1
1
1
1
1
1
1
1
1
1
1
1
1
1
1
1
1
1
1
1
1
1
1
1
1
1
1
1
1
1
1
1
1
1
1
1
1
1
1
1
1
1
1
1
1
1
1
1
1
1
1
1
1
1
1
1
1
1
1
1
1
1
1
1
1
1
1
1
1
1
1
1
1
1
1
1
1
1
1
1
1
1
1
1
1
1
1
1
1
1
1
1
1
1
1
1
1
1
1
1
1
1
1
1
1
1
1
1
1
1
1
1
1
1
1
1
1
1
1
1
1
1
1
1
1
1
1
1
1
1
1
1
1
1
1
1
1
1
1
1
1
1
1
1
1
1
1
1
1
1
1
1
1
1
1
1
1
1
1
1
1
1
1
1
1
1
1
1
1
1
1
1
1
1
1
1
1
1
1
1
1
1
1
1
1
1
1
1
1
1
1
1
1
1
1
1
1
1
1
1
1
1
1
1
1
1
1
1
1
1
1
1
1
1
1
1
1
1
1
1
1
1
1
1
1
1
1
1
1
1
1
1
1
1
1
1
1
1
1
1
1
1
1
1
1
1
1
1
1
1
1
1
1
1
1
1
1
1
1
1
1
1
1
1
1
1
1
1
1
1
1
1
1
1
1
1
1
1
1
1
1
1
1
1
1
1
1
1
1
1
1
1
1
1
1
1
1
1
1
1
1
1
1
1
1
1
1
1
1
1
1
1
1
1
1
1
1
1
1
1
1
1
1
1
1
1
1
1
1
1
1
1
1
1
1
1
1
1
1
1
1
1
1
1
1
1
1
1
1
1
1
1
1
1
1
1
1
1
1
1
1
1
1
1
1
1
1
1
1
1
1
1
1
1
1
1
1
1
1
1
1
1
1
1
1
1
1
1
1
1
1
1
1
1
1
1
1
1
1
1
1
1
1
1
1
1
1
1
1
1
1
1
1
1
1
1
1
1
1
1
1
1
1
1
1
1
1
1
1
1
1
1
1
1
1
1
1
1
1
1
1
1
1
1
1
1
1
1
1
1
1
1
1
1
1
1
1
1
1
1
1
1
1
1
1
1
1
1
1
1
1
1
1
1
1
1
1
1
1
1
1
1
1
1
1
1
1
1
1
1
1
1
1
1
1
1
1
1
1
1
1
1
1
1
1
1
1
1
1
1
1
1
1
1
1
1
1
1
1
1
1
1
1
1
1
1
1
1
1
1
1
1
1
1
1
1
1
1
1
1
1
1
1
1
1
1
1
1
1
1
1
1
1
1
1
1
1
1
1
1
1
1
1
1
1
1
1
1
1
1
1
1
1
1
1
1
1
1
1
1
1
1
1
1
1
1
1
1
1
1
1
1
1
1
1
1
1
1
1
1
1
1
1
1
1
1
1
1
1
1
1
1
1
1
1
1
1
1
1
1
1
1
1
1
1
1
1
1
1
1
1
1
1
1
1
1
1
1
1
1
1
1
1
1
1
1
1
1
1
1
1
1
1
1
1
1
1
1
1
1
1
1
1
1
1
1
1
1
1
1
1
1
1
1
1
1
1
1
1
1
1
1
1
1
1
1
1
1
1
1
1
1
1
1
1
1
1
1
1
1
1
1
1
1
1
1
1
1
1
1
1
1
1
1
1
1
1
1
1
1
1
1
1
1
1
1
1
1
1
1
1
1
1
1
1
1
1
1
1
1
1
1
1
1
1
1
1
1
1
1
1
1
1
1
1
1
1
1
1
1
1
1
1
1
1
1
1
1
1
1
1
1
1
1
1
1
1
1
1
1
1
1
1
1
1
1
1
1
1
1
1
1
1
1
1
1
1
1
1
1
1
1
1
1
1
1
1
1
1
1
1
1
1
1
1
1
1
1
1
1
1
1
1
1
1
1
1
1
1
1
1
1
1
1
1
1
1
1
1
1
1
1
1
1
1
1
1
1
1
1
1
1
1
1
1
1
1
1
1
1
1
1
1
1
1
1
1
1
1
1
1
1
1
1
1
1
1
1
1
1
1
1
1
1
1
1
1
1
1
1
1
1
1
1
1
1
1
1
1
1
1
1
1
1
1
1
1
1
1
1
1
1
1
1
1
1
1
1
1
1
1
1
1
1
1
1
1
1
1
1
1
1
1
1
1
1
1
1
1
1
1
1
1
1
1
1
1
1
1
1
1
1
1
1
1
1
1
1
1
1
1
1
1
1
1
1
1
1
1
1
1
1
1
1
1
1
1
1
1
1
1
1
1
1
1
1
1
1
1
1
1
1
1
1
1
1
1
1
1
1
1
1
1
1
1.25697
1.6646
2.1631
2.70672
3.34235
4.18204
4.78774
5.27662
6.01577
7.24743
7.69772
7.83705
8.14597
8.86588
9.12596
8.98293
8.76082
8.655
8.44355
7.92192
7.18048
6.30544
5.86152
5.78078
5.69914
5.51363
5.38413
5.39917
5.45048
5.50476
5.54894
5.56296
5.61591
5.73893
5.85612
5.92972
5.95205
5.94225
5.90751
5.86623
5.84255
5.84056
5.85325
5.91704
6.02034
6.06607
6.06993
6.05358
6.00107
5.9459
5.90263
5.87928
5.87367
5.87979
5.90933
5.97812
6.03228
6.06039
6.06806
6.05978
6.02871
5.97519
5.90368
5.85365
5.84088
5.8493
5.88648
5.9672
6.06302
6.12521
6.1427
6.13449
6.08773
6.02064
5.94903
5.90098
5.87492
5.86633
5.87044
5.92757
1
1
0.999992
0.99976
0.996801
1.01037
1.17324
1.36546
1.47119
1.73485
2.24928
2.78536
3.15081
3.69529
4.53039
4.95907
5.23385
5.7759
6.09491
6.05238
6.15058
6.2997
6.48438
6.58586
6.55237
6.36461
6.08567
6.04651
6.02206
5.95831
5.87075
5.77621
5.71026
5.69155
5.69175
5.71087
5.76935
5.8543
5.89105
5.89596
5.89988
5.89723
5.8912
5.89474
5.90239
5.92775
5.95289
5.9674
5.97082
5.96217
5.96522
5.97479
5.97354
5.96217
5.94179
5.92402
5.92277
5.94205
5.98469
6.0146
6.01272
5.99746
5.98973
5.98084
5.96058
5.94498
5.94392
5.95224
5.95479
5.97551
6.00799
6.02514
6.02316
6.00297
6.00012
6.00292
6.00187
5.99576
5.98745
5.99442
1
1
1
1
1
0.999994
1
0.999997
1
1
0.99895
1.00318
1.0312
1.09762
1.34241
1.80269
2.233
2.9491
3.9788
5.2782
6.13788
6.57414
7.03196
7.22696
7.17684
6.98813
6.74359
6.61006
6.51937
6.37734
6.12127
5.91127
5.73973
5.65967
5.64818
5.66476
5.71829
5.81279
5.90004
5.94027
5.94547
5.93735
5.93299
5.92016
5.88576
5.86118
5.85569
5.86693
5.91222
5.97902
6.02014
6.02884
6.02811
6.01838
5.99071
5.93314
5.88514
5.87661
5.88052
5.91398
5.9855
6.04118
6.05791
6.06105
6.0575
6.03874
6.00476
5.95647
5.92005
5.89684
5.88628
5.89037
5.92267
5.98992
6.05925
6.08835
6.09679
6.09656
6.08379
6.04348
1
1
1
1
1
1
1
1
1
1
1
1
1
1
1
1
0.998396
1.01115
1.14493
1.54534
2.32057
3.3398
4.22829
5.40782
5.82589
6.03245
6.23857
6.21474
6.25009
6.31841
6.41534
6.40525
6.27714
6.06931
5.91893
5.85115
5.84912
5.82277
5.82054
5.82495
5.82597
5.82819
5.84156
5.85766
5.8681
5.86296
5.85212
5.85189
5.87085
5.9173
5.99889
6.06652
6.08141
6.0723
6.02942
5.94566
5.88219
5.86784
5.86528
5.87057
5.91096
5.99613
6.07266
6.10809
6.10933
6.08624
6.0433
5.99195
5.93719
5.89881
5.87988
5.87238
5.88136
5.92223
6.01477
6.10476
6.13519
6.13371
6.11781
6.06862
1
1
1
1
1
1
1
1
1
1
1
1
1
1
1
1
1
1
1
1
0.998128
1.05967
1.21649
1.59296
2.46876
3.33494
4.34956
5.15773
5.74583
6.38808
6.59658
6.58953
6.56657
6.48506
6.34442
6.17676
5.97015
5.81086
5.75529
5.75923
5.7842
5.81889
5.83589
5.84897
5.85701
5.85457
5.85617
5.84727
5.8537
5.87213
5.90798
5.9727
6.02972
6.0391
6.02357
5.97213
5.9273
5.90893
5.90143
5.89752
5.90389
5.93151
5.97051
6.01323
6.05284
6.06846
6.06057
6.03065
5.99808
5.96474
5.92786
5.90504
5.9027
5.91686
5.96435
6.02419
6.06505
6.08122
6.08572
6.0509
1
1
1
1
1
1
1
1
1
1
1
1
1
1
1
1
1
1
1
1
1
1
1
0.999085
1.00593
1.05587
1.23229
1.89991
2.71042
3.68066
4.50133
5.07579
5.7997
6.04042
6.0502
6.06138
6.0819
6.04185
5.96785
5.89619
5.87973
5.90412
5.95916
5.96787
5.94889
5.9221
5.88127
5.81583
5.77947
5.78813
5.81687
5.86836
5.92996
5.98078
6.00347
6.01832
6.03215
6.03765
6.0293
5.99639
5.94886
5.92773
5.92229
5.91866
5.92245
5.95155
6.00533
6.03923
6.04585
6.04391
6.03437
6.00316
5.97105
5.96878
5.98561
5.98657
5.97325
5.9579
5.95009
5.96669
1
1
1
1
1
1
1
1
1
1
1
1
1
1
1
1
1
1
1
1
1
1
1
1
1
1
1
0.998624
1.0129
1.096
1.47894
2.0192
2.86284
3.85918
4.69329
5.67722
6.01248
6.22293
6.23197
6.13421
6.03081
6.01634
6.01866
5.99884
5.95896
5.92576
5.90447
5.85438
5.81066
5.79116
5.79262
5.80919
5.84089
5.87001
5.91077
5.97406
6.05105
6.10019
6.112
6.10262
6.04407
5.92741
5.86643
5.85197
5.84678
5.85264
5.90368
6.00225
6.07438
6.08968
6.08554
6.07361
6.05858
6.03085
5.9853
5.96594
5.92849
5.89489
5.8842
5.90889
1
1
1
1
1
1
1
1
1
1
1
1
1
1
1
1
1
1
1
1
1
1
1
1
1
1
1
1
1
1
0.999995
0.998407
1.02559
1.29244
1.71638
2.40882
3.38485
4.36203
5.37719
5.50591
5.62343
5.70095
5.70628
5.792
5.88806
5.95469
6.01516
6.01775
5.98823
5.95419
5.92536
5.8877
5.82572
5.78394
5.77803
5.81104
5.91755
6.06248
6.11011
6.10586
6.09324
6.04181
5.94852
5.88196
5.8599
5.86208
5.88435
5.92837
6.00081
6.06405
6.08725
6.08888
6.07647
6.06031
6.04722
5.99368
5.94201
5.90953
5.90062
5.91912
1
1
1
1
1
1
1
1
1
1
1
1
1
1
1
1
1
1
1
1
1
1
1
1
1
1
1
1
1
1
1
1
1
1
0.998866
1.00857
1.14886
1.41464
2.0366
3.00465
3.97194
4.98518
5.33374
5.73178
5.88376
5.90959
5.95781
6.04312
6.0665
6.05454
6.0188
5.98553
5.9137
5.806
5.73784
5.73645
5.77572
5.87465
6.00776
6.07048
6.07565
6.07931
6.07974
6.05587
5.99665
5.93369
5.90948
5.91912
5.94351
5.95355
5.96274
5.97281
5.99612
6.04091
6.0554
6.05153
6.0355
5.99644
5.9441
5.9393
1
1
1
1
1
1
1
1
1
1
1
1
1
1
1
1
1
1
1
1
1
1
1
1
1
1
1
1
1
1
1
1
1
1
1
1
1
0.999362
1.00038
1.09694
1.28729
1.79021
2.73264
3.81381
4.73268
4.94083
5.26072
5.63819
5.80768
5.91158
5.98618
6.08103
6.08333
6.03373
5.90949
5.78075
5.76151
5.78755
5.84162
5.89438
5.94515
6.00986
6.0771
6.1058
6.10329
6.08921
6.05493
6.00469
5.9499
5.90272
5.88169
5.87646
5.8872
5.93583
6.01849
6.05409
6.04802
6.04617
6.05403
6.04284
1
1
1
1
1
1
1
1
1
1
1
1
1
1
1
1
1
1
1
1
1
1
1
1
1
1
1
1
1
1
1
1
1
1
1
1
1
1
1
1
0.999797
0.998913
1.05279
1.20203
1.68915
2.51146
3.40714
4.3504
4.94487
5.40964
5.70238
5.94242
6.05728
6.06735
6.03887
5.99194
5.94639
5.8839
5.83461
5.80173
5.76964
5.78396
5.87682
6.022
6.10188
6.11155
6.11696
6.12627
6.10133
6.00643
5.88395
5.84913
5.85849
5.90037
5.94694
5.99131
6.03655
6.05393
6.07307
6.0742
1
1
1
1
1
1
1
1
1
1
1
1
1
1
1
1
1
1
1
1
1
1
1
1
1
1
1
1
1
1
1
1
1
1
1
1
1
1
1
1
1
1
1
0.999977
0.999311
1.03155
1.12506
1.60822
2.62604
3.70878
4.26793
4.80005
5.51527
5.86576
5.9473
5.95675
6.04097
6.09103
6.04846
5.93576
5.77141
5.7251
5.76608
5.85942
5.94542
6.00745
6.06411
6.11459
6.12817
6.10068
6.02089
5.93508
5.90455
5.9076
5.92898
5.95009
5.95552
5.96899
6.00622
6.05077
1
1
1
1
1
1
1
1
1
1
1
1
1
1
1
1
1
1
1
1
1
1
1
1
1
1
1
1
1
1
1
1
1
1
1
1
1
1
1
1
1
1
1
1
1
1
0.999727
1.00032
1.04376
1.20818
1.72956
2.40169
3.45065
4.39386
5.02958
5.42275
5.83842
6.07941
6.10025
6.07619
5.96451
5.86349
5.83615
5.81771
5.84187
5.83538
5.83398
5.91748
6.04157
6.0724
6.05628
6.05756
6.07566
6.08226
6.06084
5.97463
5.91533
5.91426
5.93255
5.97362
1
1
1
1
1
1
1
1
1
1
1
1
1
1
1
1
1
1
1
1
1
1
1
1
1
1
1
1
1
1
1
1
1
1
1
1
1
1
1
1
1
1
1
1
1
1
1
1
1
0.999627
1.00219
1.02151
1.18727
1.95436
3.12462
3.86744
4.43982
5.39052
5.90824
5.991
5.95019
6.00383
6.09491
6.0623
5.98401
5.84943
5.7796
5.82251
5.86411
5.90002
5.94803
6.02991
6.11705
6.1402
6.13922
6.08005
5.96637
5.92182
5.91385
5.93784
1
1
1
1
1
1
1
1
1
1
1
1
1
1
1
1
1
1
1
1
1
1
1
1
1
1
1
1
1
1
1
1
1
1
1
1
1
1
1
1
1
1
1
1
1
1
1
1
1
1
1
1
0.999505
1.0125
1.10863
1.4965
2.05462
3.01617
4.22737
4.9638
5.35476
5.78161
6.07866
6.11914
6.10365
6.02818
5.91251
5.82653
5.79706
5.79419
5.82037
5.86514
5.99876
6.1133
6.12284
6.07349
6.02581
6.02369
6.0069
5.9767
1
1
1
1
1
1
1
1
1
1
1
1
1
1
1
1
1
1
1
1
1
1
1
1
1
1
1
1
1
1
1
1
1
1
1
1
1
1
1
1
1
1
1
1
1
1
1
1
1
1
1
1
1
0.99999
0.999884
1.00077
1.01218
1.10637
1.73885
3.05187
3.96644
4.52085
5.42425
5.95343
6.043
6.0329
6.04916
6.09642
6.04549
5.94882
5.86514
5.85196
5.91786
5.96128
5.96935
5.95746
5.96724
5.99646
6.02987
6.03837
1
1
1
1
1
1
1
1
1
1
1
1
1
1
1
1
1
1
1
1
1
1
1
1
1
1
1
1
1
1
1
1
1
1
1
1
1
1
1
1
1
1
1
1
1
1
1
1
1
1
1
1
1
1
0.999999
1
0.999995
0.999774
1.00888
1.11789
1.62425
2.27591
3.26618
4.5548
5.16596
5.4337
5.80593
6.05547
6.10053
6.08164
6.06496
6.04466
5.96579
5.90451
5.86042
5.83301
5.8371
5.88991
6.0211
6.06707
1
1
1
1
1
1
1
1
1
1
1
1
1
1
1
1
1
1
1
1
1
1
1
1
1
1
1
1
1
1
1
1
1
1
1
1
1
1
1
1
1
1
1
1
1
1
1
1
1
1
1
1
1
1
1
1
1
0.999994
1
0.999845
1.0046
1.03112
1.18612
1.98369
3.62464
4.44441
4.92232
5.6252
5.99655
6.04165
6.07816
6.12678
6.1721
6.1356
6.01948
5.89015
5.84388
5.88312
5.95849
5.99981
1
1
1
1
1
1
1
1
1
1
1
1
1
1
1
1
1
1
1
1
1
1
1
1
1
1
1
1
1
1
1
1
1
1
1
1
1
1
1
1
1
1
1
1
1
1
1
1
1
1
1
1
1
1
1
1
1
1
1
0.999995
0.999997
0.999954
1.00017
1.02167
1.29361
2.205
3.09357
4.29024
5.2391
5.42499
5.54906
5.83647
6.0707
6.10819
6.06652
6.03391
6.02591
6.03624
6.02314
5.98224
1
1
1
1
1
1
1
1
1
1
1
1
1
1
1
1
1
1
1
1
1
1
1
1
1
1
1
1
1
1
1
1
1
1
1
1
1
1
1
1
1
1
1
1
1
1
1
1
1
1
1
1
1
1
1
1
1
1
1
1
1
0.999998
0.999997
0.999945
1.00107
1.04409
1.1769
1.66461
3.12411
4.8003
5.10701
5.37441
5.79879
5.94564
5.86536
5.87957
6.02244
6.15256
6.17225
6.11294
1
1
1
1
1
1
1
1
1
1
1
1
1
1
1
1
1
1
1
1
1
1
1
1
1
1
1
1
1
1
1
1
1
1
1
1
1
1
1
1
1
1
1
1
1
1
1
1
1
1
1
1
1
1
1
1
1
1
1
1
1
1
1
0.999996
0.999997
1
1.00012
1.01183
1.16321
2.16062
3.54155
4.59987
5.6013
5.7327
5.57207
5.54083
5.72858
5.98414
6.11422
6.07049
1
1
1
1
1
1
1
1
1
1
1
1
1
1
1
1
1
1
1
1
1
1
1
1
1
1
1
1
1
1
1
1
1
1
1
1
1
1
1
1
1
1
1
1
1
1
1
1
1
1
1
1
1
1
1
1
1
1
1
1
1
1
1
1
1
0.999999
0.999998
0.999972
1.00052
1.05666
1.41494
1.99343
3.32545
5.14423
5.6629
5.6759
5.7501
5.82124
5.93018
5.90361
1
1
1
1
1
1
1
1
1
1
1
1
1
1
1
1
1
1
1
1
1
1
1
1
1
1
1
1
1
1
1
1
1
1
1
1
1
1
1
1
1
1
1
1
1
1
1
1
1
1
1
1
1
1
1
1
1
1
1
1
1
1
1
1
1
1
1
0.999997
0.999994
1.00003
1.00258
1.03705
1.23781
2.36879
4.18613
5.27211
5.8802
6.02418
6.04387
5.96319
1
1
1
1
1
1
1
1
1
1
1
1
1
1
1
1
1
1
1
1
1
1
1
1
1
1
1
1
1
1
1
1
1
1
1
1
1
1
1
1
1
1
1
1
1
1
1
1
1
1
1
1
1
1
1
1
1
1
1
1
1
1
1
1
1
1
1
1
0.999999
0.999999
0.999999
0.999984
1.00125
1.10522
1.95431
3.17811
4.40608
5.6392
5.98411
6.05468
1
1
1
1
1
1
1
1
1
1
1
1
1
1
1
1
1
1
1
1
1
1
1
1
1
1
1
1
1
1
1
1
1
1
1
1
1
1
1
1
1
1
1
1
1
1
1
1
1
1
1
1
1
1
1
1
1
1
1
1
1
1
1
1
1
1
1
1
1
1
1
0.999998
0.999995
1.00076
1.02963
1.32691
2.11017
3.60175
4.77336
5.60275
1
1
1
1
1
1
1
1
1
1
1
1
1
1
1
1
1
1
1
1
1
1
1
1
1
1
1
1
1
1
1
1
1
1
1
1
1
1
1
1
1
1
1
1
1
1
1
1
1
1
1
1
1
1
1
1
1
1
1
1
1
1
1
1
1
1
1
1
1
1
1
1
0.999999
1
0.999984
1.00416
1.04269
1.38169
2.71766
4.85376
1
1
1
1
1
1
1
1
1
1
1
1
1
1
1
1
1
1
1
1
1
1
1
1
1
1
1
1
1
1
1
1
1
1
1
1
1
1
1
1
1
1
1
1
1
1
1
1
1
1
1
1
1
1
1
1
1
1
1
1
1
1
1
1
1
1
1
1
1
1
1
1
1
1
0.999998
0.999995
1.00001
1.00859
1.16928
2.97835
1
1
1
1
1
1
1
1
1
1
1
1
1
1
1
1
1
1
1
1
1
1
1
1
1
1
1
1
1
1
1
1
1
1
1
1
1
1
1
1
1
1
1
1
1
1
1
1
1
1
1
1
1
1
1
1
1
1
1
1
1
1
1
1
1
1
1
1
1
1
1
1
1
1
1
0.999999
0.999999
1.00001
1.00244
1.45874
1
1
1
1
1
1
1
1
1
1
1
1
1
1
1
1
1
1
1
1
1
1
1
1
1
1
1
1
1
1
1
1
1
1
1
1
1
1
1
1
1
1
1
1
1
1
1
1
1
1
1
1
1
1
1
1
1
1
1
1
1
1
1
1
1
1
1
1
1
1
1
1
1
1
1
1
1
1
1.00001
1.02913
1
1
1
1
1
1
1
1
1
1
1
1
1
1
1
1
1
1
1
1
1
1
1
1
1
1
1
1
1
1
1
1
1
1
1
1
1
1
1
1
1
1
1
1
1
1
1
1
1
1
1
1
1
1
1
1
1
1
1
1
1
1
1
1
1
1
1
1
1
1
1
1
1
1
1
1
1
1
1
1.00047
1
1
1
1
1
1
1
1
1
1
1
1
1
1
1
1
1
1
1
1
1
1
1
1
1
1
1
1
1
1
1
1
1
1
1
1
1
1
1
1
1
1
1
1
1
1
1
1
1
1
1
1
1
1
1
1
1
1
1
1
1
1
1
1
1
1
1
1
1
1
1
1
1
1
1
1
1
1
1
1
1
1
1
1
1
1
1
1
1
1
1
1
1
1
1
1
1
1
1
1
1
1
1
1
1
1
1
1
1
1
1
1
1
1
1
1
1
1
1
1
1
1
1
1
1
1
1
1
1
1
1
1
1
1
1
1
1
1
1
1
1
1
1
1
1
1
1
1
1
1
1
1
1
1
1
1
1
1
1
1
1
1
1
1
1
1
1
1
1
1
1
1
1
1
1
1
1
1
1
1
1
1
1
1
1
1
1
1
1
1
1
1
1
1
1
1
1
1
1
1
1
1
1
1
1
1
1
1
1
1
1
1
1
1
1
1
1
1
1
1
1
1
1
1
1
1
1
1
1
1
1
1
1
1
1
1
1
1
1
1
1
1
1
1
1
1
1
1
1
1
1
1
1
1
1
1
1
1
1
1
1
1
1
1
1
1
1
1
1
1
1
1
1
1
1
1
1
1
1
1
1
1
1
1
1
1
1
1
1
1
1
1
1
1
1
1
1
1
1
1
1
1
1
1
1
1
1
1
1
1
1
1
1
1
1
1
1
1
1
1
1
1
1
1
1
1
1
1
1
1
1
1
1
1
1
1
1
1
1
1
1
1
1
1
1
1
1
1
1
1
1
1
1
1
1
1
1
1
1
1
1
1
1
1
1
1
1
1
1
1
1
1
1
1
1
1
1
1
1
1
1
1
1
1
1
1
1
1
1
1
1
1
1
1
1
1
1
1
1
1
1
1
1
1
1
1
1
1
1
1
1
1
1
1
1
1
1
1
1
1
1
1
1
1
1
1
1
1
1
1
1
1
1
1
1
1
1
1
1
1
1
1
1
1
1
1
1
1
1
1
1
1
1
1
1
1
1
1
1
1
1
1
1
1
1
1
1
1
1
1
1
1
1
1
1
1
1
1
1
1
1
1
1
1
1
1
1
1
1
1
1
1
1
1
1
1
1
1
1
1
1
1
1
1
1
1
1
1
1
1
1
1
1
1
1
1
1
1
1
1
1
1
1
1
1
1
1
1
1
1
1
1
1
1
1
1
1
1
1
1
1
1
1
1
1
1
1
1
1
1
1
1
1
1
1
1
1
1
1
1
1
1
1
1
1
1
1
1
1
1
1
1
1
1
1
1
1
1
1
1
1
1
1
1
1
1
1
1
1
1
1
1
1
1
1
1
1
1
1
1
1
1
1
1
1
1
1
1
1
1
1
1
1
1
1
1
1
1
1
1
1
1
1
1
1
1
1
1
1
1
1
1
1
1
1
1
1
1
1
1
1
1
1
1
1
1
1
1
1
1
1
1
1
1
1
1
1
1
1
1
1
1
1
1
1
1
1
1
1
1
1
1
1
1
1
1
1
1
1
1
1
1
1
1
1
1
1
1
1
1
1
1
1
1
1
1
1
1
1
1
1
1
1
1
1
1
1
1
1
1
1
1
1
1
1
1
1
1
1
1
1
1
1
1
1
1
1
1
1
1
1
1
1
1
1
1
1
1
1
1
1
1
1
1
1
1
1
1
1
1
1
1
1
1
1
1
1
1
1
1
1
1
1
1
1
1
1
1
1
1
1
1
1
1
1
1
1
1
1
1
1
1
1
1
1
1
1
1
1
1
1
1
1
1
1
1
1
1
1
1
)
;

boundaryField
{
    inlet
    {
        type            fixedValue;
        value           uniform 1;
    }
    outlet
    {
        type            zeroGradient;
    }
    bottom
    {
        type            symmetryPlane;
    }
    top
    {
        type            symmetryPlane;
    }
    obstacle
    {
        type            zeroGradient;
    }
    defaultFaces
    {
        type            empty;
    }
}


// ************************************************************************* //
