/*--------------------------------*- C++ -*----------------------------------*\
| =========                 |                                                 |
| \\      /  F ield         | OpenFOAM: The Open Source CFD Toolbox           |
|  \\    /   O peration     | Version:  2206                                  |
|   \\  /    A nd           | Website:  www.openfoam.com                      |
|    \\/     M anipulation  |                                                 |
\*---------------------------------------------------------------------------*/
FoamFile
{
    version     2.0;
    format      ascii;
    arch        "LSB;label=32;scalar=64";
    class       volScalarField;
    location    "0.18";
    object      p;
}
// * * * * * * * * * * * * * * * * * * * * * * * * * * * * * * * * * * * * * //

dimensions      [1 -1 -2 0 0 0 0];

internalField   nonuniform List<scalar> 
4800
(
1
1
1
1
1
1
1
1
1
1
1
1
1
1
1
1
1
1
1
1
1
1
1
1
1
1
1
1
1
1
1
1
1
1
1
1
1
1
1
1
1
1
1
1
1
1
1
1
1
1
1
1
1
1
1
1
1
1
1
1
1
1
1
1
1
1
1
1
1
1
1
1
1
1
1
1
1
1
1
1
1
1
1
1
1
1
1
1
1
1
1
1
1
1
1
1
1
1
1
1
1
1
1
1
1
1
1
1
1
1
1
1
1
1
1
1
1
1
1
1
1
1
1
1
1
1
1
1
1
1
1
1
1
1
1
1
1
1
1
1
1
1
1
1
1
1
1
1
1
1
1
1
1
1
1
1
1
1
1
1
1
1
1
1
1
1
1
1
1
1
1
1
1
1
1
1
1
1
1
1
1
1
1
1
1
1
1
1
1
1
1
1
1
1
1
1
1
1
1
1
1
1
1
1
1
1
1
1
1
1
1
1
1
1
1
1
1
1
1
1
1
1
1
1
1
1
1
1
1
1
1
1
1
1
1
1
1
1
1
1
1
1
1
1
1
1
1
1
1
1
1
1
1
1
1
1
1
1
1
1
1
1
1
1
1
1
1
1
1
1
1
1
1
1
1
1
1
1
1
1
1
1
1
1
1
1
1
1
1
1
1
1
1
1
1
1
1
1
1
1
1
1
1
1
1
1
1
1
1
1
1
1
1
1
1
1
1
1
1
1
1
1
1
1
1
1
1
1
1
1
1
1
1
1
1
1
1
1
1
1
1
1
1
1
1
1
1
1
1
1
1
1
1
1
1
1
1
1
1
1
1
1
1
1
1
1
1
1
1
1
1
1
1
1
1
1
1
1
1
1
1
1
1
1
1
1
1
1
1
1
1
1
1
1
1
1
1
1
1
1
1
1
1
1
1
1
1
1
1
1
1
1
1
1
1
1
1
1
1
1
1
1
1
1
1
1
1
1
1
1
1
1
1
1
1
1
1
1
1
1
1
1
1
1
1
1
1
1
1
1
1
1
1
1
1
1
1
1
1
1
1
1
1
1
1
1
1
1
1
1
1
1
1
1
1
1
1
1
1
1
1
1
1
1
1
1
1
1
1
1
1
1
1
1
1
1
1
1
1
1
1
1
1
1
1
1
1
1
1
1
1
1
1
1
1
1
1
1
1
1
1
1
1
1
1
1
1
1
1
1
1
1
1
1
1
1
1
1
1
1
1
1
1
1
1
1
1
1
1
1
1
1
1
1
1
1
1
1
1
1
1
1
1
1
1
1
1
1
1
1
1
1
1
1
1
1
1
1
1
1
1
1
1
1
1
1
1
1
1
1
1
1
1
1
1
1
1
1
1
1
1
1
1
1
1
1
1
1
1
1
1
1
1
1
1
1
1
1
1
1
1
1
1
1
1
1
1
1
1
1
1
1
1
1
1
1
1
1
1
1
1
1
1
1
1
1
1
1
1
1
1
1
1
1
1
1
1
1
1
1
1
1
1
1
1
1
1
1
1
1
1
1
1
1
1
1
1
1
1
1
1
1
1
1
1
1
1
1
1
1
1
1
1
1
1
1
1
1
1
1
1
1
1
1
1
1
1
1
1
1
1
1
1
1
1
1
1
1
1
1
1
1
1
1
1
1
1
1
1
1
1
1
1
1
1
1
1
1
1
1
1
1
1
1
1
1
1
1
1
1
1
1
1
1
1
1
1
1
1
1
1
1
1
1
1
1
1
1
1
1
1
1
1
1
1
1
1
1
1
1
1
1
1
1
1
1
1
1
1
1
1
1
1
1
1
1
1
1
1
1
1
1
1
1
1
1
1
1
1
1
1
1
1
1
1
1
1
1
1
1
1
1
1
1
1
1
1
1
1
1
1
1
1
1
1
1
1
1
1
1
1
1
1
1
1
1
1
1
1
1
1
1
1
1
1
1
1
1
1
1
1
1
1
1
1
1
1
1
1
1
1
1
1
1
1
1
1
1
1
1
1
1
1
1
1
1
1
1
1
1
1
1
1
1
1
1
1
1
1
1
1
1
1
1
1
1
1
1
1
1
1
1
1
1
1
1
1
1
1
1
1
1
1
1
1
1
1
1
1
1
1
1
1
1
1
1
1
1
1
1
1
1
1
1
1
1
1
1
1
1
1
1
1
1
1
1
1
1
1
1
1
1
1
1
1
1
1
1
1
1
1
1
1
1
1
1
1
1
1
1
1
1
1
1
1
1
1
1
1
1
1
1
1
1
1
1
1
1
1
1
1
1
1
1
1
1
1
1
1
1
1
1
1
1
1
1
1
1
1
1
1
1
1
1
1
1
1
1
1
1
1
1
1
1
1
1
1
1
1
1
1
1
1
1
1
1
1
1
1
1
1
1
1
1
1
1
1
1
1
1
1
1
1
1
1
1
1
1
1
1
1
1
1
1
1
1
1
1
1
1
1
1
1
1
1
1
1
1
1
1
1
1
1
1
1
1
1
1
1
1
1
1
1
1
1
1
1
1
1
1
1
1
1
1
1
1
1
1
1
1
1
1
1
1
1
1
1
1
1
1
1
1
1
1
1
1
1
1
1
1
1
1
1
1
1
1
1
1
1
1
1
1
1
1
1
1
1
1
1
1
1
1
1
1
1
1
1
1
1
1
1
1
1
1
1
1
1
1
1
1
1
1
1
1
1
1
1
1
1
1
1
1
1
1
1
1
1
1
1
1
1
1
1
1
1
1
1
1
1
1
1
1
1
1
1
1
1
1
1
1
1
1
1
1
1
1
1
1
1
1
1
1
1
1
1
1
1
1
1
1
1
1
1
1
1
1
1
1
1
1
1
1
1
1
1
1
1
1
1
1
1
1
1
1
1
1
1
1
1
1
1
1
1
1
1
1
1
1
1
1
1
1
1
1
1
1
1
1
1
1
1
1
1
1
1
1
1
1
1
1
1
1
1
1
1
1
1
1
1
1
1
1
1
1
1
1
1
1
1
1
1
1
1
1
1
1
1
1
1
1
1
1
1
1
1
1
1
1
1
1
1
1
1
1
1
1
1
1
1
1
1
1
1
1
1
1
1
1
1
1
1
1
1
1
1
1
1
1
1
1
1
1
1
1
1
1
1
1
1
1
1
1
1
1
1
1
1
1
1
1
1
1
1
1
1
1
1
1
1
1
1
1
1
1
1
1
1
1
1
1
1
1
1
1
1
1
1
1
1
1
1
1
1
1
1
1
1
1
1
1
1
1
1
1
1
1
1
1
1
1
1
1
1
1
1
1
1
1
1
1
1
1
1
1
1
1
1
1
1
1
1
1
1
1
1
1
1
1
1
1
1
1
1
1
1
1
1
1
1
1
1
1
1
1
1
1
1
1
1
1
1
1
1
1
1
1
1
1
1
1
1
1
1
1
1
1
1
1
1
1
1
1
1
1
1
1
1
1
1
1
1
1
1
1
1
1
1
1
1
1
1
1
1
1
1
1
1
1
1
1
1
1
1
1
1
1
1
1
1
1
1
1
1
1
1
1
1
1
1
1
1
1
1
1
1
1
1
1
1
1
1
1
1
1
1
1
1
1
1
1
1
1
1
1
1
1
1
1
1
1
1
1
1
1
1
1
1
1
1
1
1.27432
1.69758
2.15359
2.72705
3.2272
3.61479
4.07711
4.30961
4.46269
4.42909
4.26773
3.99161
3.68872
3.37807
3.26695
3.23493
3.18143
3.16194
3.18193
3.2184
3.25405
3.27754
3.28599
3.29383
3.30685
3.31994
3.32456
3.32558
3.32348
3.31751
3.31201
3.30582
3.3044
3.30707
3.31173
3.31407
3.31557
3.31793
3.3211
3.32381
3.32629
3.32917
3.33349
3.33914
3.34095
3.33966
3.33697
3.33274
3.32716
3.32316
3.32216
3.32211
3.32229
3.32384
3.32726
3.32955
3.33001
3.33021
3.32934
3.32711
3.32572
3.32522
3.32523
3.32585
3.32727
3.32873
3.32911
3.32903
3.32861
3.32853
3.32852
3.32857
3.32914
3.33035
3.3307
3.33033
3.32995
3.32935
3.32834
3.32768
1.00254
1.02655
1.09092
1.1808
1.39457
1.65706
1.99374
2.37003
2.76303
3.09621
3.2436
3.43154
3.55917
3.51145
3.45439
3.46067
3.43834
3.35473
3.31077
3.27108
3.23981
3.24513
3.25891
3.27457
3.29338
3.31154
3.31942
3.31954
3.31734
3.31237
3.31107
3.31259
3.31391
3.31973
3.3216
3.32131
3.32031
3.31778
3.31534
3.31536
3.31641
3.3178
3.32027
3.32539
3.33037
3.33142
3.33117
3.32974
3.32668
3.32445
3.32474
3.32547
3.32656
3.32861
3.33122
3.33224
3.33233
3.33202
3.33078
3.32909
3.32855
3.32865
3.32908
3.32998
3.33074
3.33082
3.33068
3.32994
3.3287
3.32801
3.3279
3.3279
3.32817
3.32883
3.32919
3.32897
3.32875
3.32847
3.32789
3.32747
0.999997
1.00001
1.00015
1.00061
1.00426
1.01864
1.06358
1.19188
1.4305
1.88264
2.49413
3.15839
3.4836
3.66925
3.71559
3.6954
3.65064
3.55226
3.37263
3.25572
3.22684
3.23456
3.25049
3.26962
3.29023
3.3025
3.30428
3.30423
3.30448
3.30612
3.31116
3.31858
3.3268
3.3343
3.33544
3.33465
3.33154
3.32539
3.31886
3.31502
3.31366
3.31234
3.31311
3.31654
3.32073
3.32241
3.32294
3.3228
3.32171
3.32151
3.32241
3.32409
3.32646
3.32934
3.3319
3.33267
3.33283
3.33284
3.33229
3.33131
3.33103
3.33113
3.33157
3.33259
3.33336
3.3335
3.3333
3.33238
3.33081
3.32949
3.32896
3.32876
3.32879
3.32921
3.32955
3.32942
3.3293
3.32919
3.32884
3.32862
1
1
1
0.999999
1
1.00001
1.00004
1.00072
1.00505
1.03538
1.1817
1.52636
2.14148
2.70743
3.29183
3.43994
3.46639
3.47368
3.45502
3.40941
3.37603
3.35434
3.3206
3.3084
3.28226
3.26094
3.25585
3.26156
3.27612
3.28942
3.30245
3.31808
3.33304
3.34178
3.34298
3.3425
3.33991
3.33339
3.32554
3.32245
3.32066
3.3194
3.31978
3.32129
3.32293
3.32359
3.32403
3.3238
3.32253
3.32167
3.32203
3.32348
3.32567
3.32745
3.32837
3.32809
3.32751
3.32685
3.32675
3.32754
3.32836
3.3295
3.33172
3.33401
3.33483
3.33488
3.33473
3.33365
3.33162
3.33002
3.32937
3.32908
3.3292
3.3297
3.33007
3.33019
3.33024
3.33016
3.33003
3.32999
1
1
1
1
1
1
1
0.999999
1
0.999994
1.00059
1.00748
1.08122
1.29943
1.75161
2.41225
2.93723
3.40599
3.50587
3.52905
3.51668
3.48532
3.42993
3.35367
3.29532
3.25604
3.25263
3.26054
3.27006
3.27994
3.28709
3.29466
3.30499
3.3166
3.32409
3.32731
3.32953
3.32968
3.32786
3.32767
3.32767
3.3276
3.32906
3.33021
3.33096
3.3308
3.33083
3.33033
3.32877
3.32706
3.32694
3.32799
3.32957
3.33022
3.32961
3.32827
3.32647
3.32461
3.32419
3.32464
3.32511
3.32602
3.32833
3.3306
3.33085
3.33072
3.33054
3.32972
3.3284
3.32737
3.32669
3.32652
3.32698
3.32782
3.32853
3.32884
3.3289
3.32877
3.32893
3.32935
1
1
1
1
1
1
1
1
1
0.999999
1
0.999992
1.0001
1.00233
1.02188
1.17328
1.48577
2.04245
2.61575
3.0751
3.37972
3.38009
3.3851
3.41015
3.38915
3.33988
3.32319
3.3122
3.29859
3.28976
3.28007
3.27816
3.28467
3.29156
3.29838
3.30539
3.31002
3.3134
3.31573
3.31862
3.32306
3.32879
3.33173
3.33253
3.33274
3.33246
3.33202
3.33167
3.33143
3.3307
3.33115
3.33234
3.3328
3.33242
3.33115
3.32911
3.32616
3.32358
3.32321
3.32353
3.32409
3.32531
3.32791
3.32956
3.32946
3.32916
3.32856
3.32787
3.3274
3.3265
3.32573
3.32553
3.32602
3.32665
3.32704
3.32717
3.32715
3.32714
3.32736
3.32801
1
1
1
1
1
1
1
1
1
1
1
1
0.999999
1
0.999991
1.00078
1.00861
1.06334
1.31875
1.73904
2.35858
2.8124
3.21678
3.41258
3.43019
3.42451
3.40044
3.36297
3.33172
3.31534
3.29708
3.28909
3.28603
3.28464
3.28446
3.28894
3.29763
3.30447
3.30716
3.30908
3.31163
3.31695
3.32142
3.3224
3.32273
3.32162
3.32109
3.32127
3.32333
3.32556
3.32753
3.33014
3.33182
3.33206
3.3313
3.32981
3.32795
3.32685
3.32696
3.32739
3.32817
3.32958
3.33169
3.3322
3.33189
3.33153
3.33049
3.32988
3.3293
3.32843
3.32793
3.32825
3.3288
3.32882
3.32828
3.3278
3.32763
3.32754
3.32752
3.32803
1
1
1
1
1
1
1
1
1
1
1
1
1
1
1
1
0.999994
1.0001
1.00387
1.02748
1.16463
1.53996
2.0652
2.63084
2.96055
3.2319
3.33174
3.34462
3.35507
3.35865
3.35019
3.33752
3.33223
3.32482
3.31575
3.30722
3.30132
3.30291
3.31049
3.3141
3.31501
3.31662
3.31651
3.31446
3.31312
3.3118
3.31107
3.31028
3.31125
3.31484
3.31979
3.32489
3.32833
3.32998
3.33086
3.33067
3.33034
3.33015
3.33056
3.33131
3.33235
3.33405
3.33506
3.33446
3.33376
3.33268
3.33118
3.33057
3.33007
3.32935
3.32923
3.33025
3.33076
3.33033
3.32904
3.32771
3.32724
3.32711
3.32707
3.32785
1
1
1
1
1
1
1
1
1
1
1
1
1
1
1
1
1
0.999999
1
1.00001
1.00105
1.0158
1.08053
1.35881
1.837
2.47175
2.83482
3.09209
3.27609
3.32673
3.34466
3.34563
3.35219
3.34759
3.33032
3.32036
3.31857
3.32129
3.33125
3.34085
3.34208
3.33873
3.33233
3.32368
3.31776
3.31577
3.31388
3.31099
3.31038
3.31184
3.31738
3.32328
3.32549
3.32606
3.32626
3.32659
3.32683
3.32724
3.32804
3.32996
3.33264
3.33404
3.33366
3.33241
3.33119
3.32963
3.32851
3.32841
3.32832
3.32851
3.32983
3.33108
3.33094
3.33016
3.32893
3.32748
3.32625
3.32588
3.32567
3.32653
1
1
1
1
1
1
1
1
1
1
1
1
1
1
1
1
1
1
1
1
1
1
1.00026
1.00709
1.05092
1.21681
1.66099
2.20011
2.77157
3.00019
3.15523
3.21179
3.25613
3.29287
3.31192
3.32214
3.3186
3.31642
3.32015
3.32979
3.33742
3.34151
3.34271
3.3397
3.33606
3.3346
3.33301
3.32874
3.32572
3.3245
3.32547
3.32675
3.32684
3.32627
3.32441
3.32332
3.32288
3.32319
3.32442
3.32722
3.32998
3.33027
3.32909
3.32755
3.32613
3.3252
3.32532
3.3257
3.32646
3.32831
3.33119
3.33242
3.33214
3.33151
3.33062
3.32871
3.32644
3.3257
3.32552
3.3261
1
1
1
1
1
1
1
1
1
1
1
1
1
1
1
1
1
1
1
1
1
1
1
0.999997
1.00012
1.00233
1.03337
1.13698
1.4652
2.0282
2.70413
3.05334
3.1392
3.21806
3.25168
3.2661
3.27098
3.2625
3.26477
3.28026
3.30268
3.31698
3.3245
3.32852
3.3322
3.33505
3.33659
3.33502
3.33376
3.3347
3.33684
3.33721
3.33662
3.33486
3.33085
3.32785
3.3257
3.32469
3.32568
3.32725
3.32884
3.32863
3.32742
3.32607
3.32477
3.32392
3.32418
3.32472
3.32559
3.32798
3.33134
3.33271
3.33251
3.33198
3.33105
3.32883
3.32622
3.3254
3.32519
3.32596
1
1
1
1
1
1
1
1
1
1
1
1
1
1
1
1
1
1
1
1
1
1
1
1
1
0.999997
1.00006
1.00103
1.01591
1.11336
1.38462
1.91273
2.47993
3.0185
3.20562
3.23972
3.27869
3.25481
3.25806
3.26689
3.27382
3.28511
3.29152
3.29465
3.2995
3.30461
3.31093
3.32099
3.32913
3.33225
3.33438
3.33459
3.33368
3.33215
3.33041
3.32939
3.32896
3.32897
3.33048
3.33213
3.33254
3.33201
3.33071
3.32864
3.32576
3.32328
3.32325
3.3241
3.3252
3.32788
3.3316
3.33285
3.33265
3.33213
3.33078
3.32797
3.32542
3.32483
3.32476
3.32572
1
1
1
1
1
1
1
1
1
1
1
1
1
1
1
1
1
1
1
1
1
1
1
1
1
1
1
0.999998
1.00001
1.00087
1.00931
1.09057
1.30481
1.78552
2.37416
2.92858
3.21174
3.26415
3.31296
3.32946
3.31504
3.30549
3.29955
3.29209
3.28819
3.28908
3.29244
3.30051
3.31033
3.31579
3.31955
3.32093
3.32095
3.322
3.32255
3.32283
3.32408
3.32579
3.32834
3.33114
3.3329
3.33332
3.33314
3.33236
3.33004
3.32669
3.32577
3.32667
3.3276
3.32994
3.33301
3.33369
3.33373
3.33303
3.33081
3.32732
3.32485
3.32417
3.32418
3.3254
1
1
1
1
1
1
1
1
1
1
1
1
1
1
1
1
1
1
1
1
1
1
1
1
1
1
1
1
1
1
1
1.00065
1.00633
1.05897
1.28144
1.72757
2.31248
2.84238
3.17638
3.29747
3.33775
3.35226
3.34943
3.3432
3.33272
3.32259
3.31505
3.31234
3.31342
3.31644
3.31806
3.31664
3.31522
3.31438
3.31384
3.31394
3.31557
3.31876
3.32271
3.32686
3.32981
3.33086
3.33158
3.33171
3.32988
3.32676
3.3263
3.3274
3.32851
3.33082
3.33286
3.33347
3.33402
3.33381
3.33161
3.32773
3.32502
3.32425
3.3243
3.32558
1
1
1
1
1
1
1
1
1
1
1
1
1
1
1
1
1
1
1
1
1
1
1
1
1
1
1
1
1
1
1
1
0.999999
1.00035
1.0061
1.04756
1.28448
1.73875
2.31193
2.78147
3.13471
3.28802
3.32145
3.33497
3.34538
3.34515
3.34313
3.33994
3.33858
3.34053
3.34165
3.33836
3.33264
3.32567
3.32037
3.31754
3.318
3.32093
3.32422
3.32814
3.33013
3.3306
3.3311
3.33063
3.32794
3.32508
3.32547
3.32665
3.32793
3.32984
3.33073
3.3314
3.33229
3.33249
3.33081
3.32759
3.3252
3.32465
3.32494
3.32638
1
1
1
1
1
1
1
1
1
1
1
1
1
1
1
1
1
1
1
1
1
1
1
1
1
1
1
1
1
1
1
1
1
1
1
1.00026
1.00757
1.04795
1.26343
1.75585
2.4059
2.80991
3.06875
3.20376
3.2788
3.3013
3.31691
3.33381
3.33969
3.34131
3.34345
3.34367
3.34067
3.3359
3.33117
3.32851
3.32877
3.33066
3.33234
3.33336
3.33328
3.33322
3.33304
3.33177
3.32837
3.32572
3.32626
3.32729
3.32833
3.32909
3.32941
3.32953
3.32997
3.33007
3.32882
3.32634
3.32468
3.32463
3.3253
3.32687
1
1
1
1
1
1
1
1
1
1
1
1
1
1
1
1
1
1
1
1
1
1
1
1
1
1
1
1
1
1
1
1
1
1
1
1
1
1.00025
1.00754
1.05762
1.27256
1.79561
2.5224
2.94436
3.10124
3.20721
3.23319
3.27578
3.28401
3.28884
3.30042
3.31381
3.31935
3.32089
3.32421
3.32757
3.32932
3.33057
3.3304
3.33014
3.33043
3.33103
3.33146
3.33119
3.32875
3.3264
3.32679
3.32777
3.3287
3.32914
3.3293
3.32911
3.329
3.32875
3.32751
3.32569
3.32515
3.32566
3.32656
3.32802
1
1
1
1
1
1
1
1
1
1
1
1
1
1
1
1
1
1
1
1
1
1
1
1
1
1
1
1
1
1
1
1
1
1
1
1
1
1
1.00001
1.00038
1.00808
1.07926
1.33313
1.89414
2.57911
3.08467
3.22271
3.28577
3.27622
3.27601
3.28719
3.29414
3.2969
3.29883
3.3031
3.30945
3.3158
3.32103
3.32296
3.32275
3.3228
3.32433
3.32648
3.32764
3.32675
3.32603
3.32672
3.32738
3.32787
3.32816
3.32835
3.32817
3.32791
3.32748
3.32617
3.32507
3.32539
3.32636
3.32751
3.32901
1
1
1
1
1
1
1
1
1
1
1
1
1
1
1
1
1
1
1
1
1
1
1
1
1
1
1
1
1
1
1
1
1
1
1
1
1
1
1
0.999999
1.00001
1.00083
1.01155
1.11471
1.42395
2.04969
2.72469
3.14019
3.2942
3.31941
3.34843
3.34628
3.33316
3.31855
3.31393
3.31548
3.31738
3.31942
3.32065
3.32014
3.3196
3.31974
3.32147
3.32333
3.32476
3.32623
3.32732
3.32779
3.32807
3.32835
3.32857
3.3286
3.32842
3.32773
3.32612
3.32531
3.32566
3.32652
3.32776
3.32949
1
1
1
1
1
1
1
1
1
1
1
1
1
1
1
1
1
1
1
1
1
1
1
1
1
1
1
1
1
1
1
1
1
1
1
1
1
1
1
1
1
0.999999
1.00003
1.00181
1.01952
1.17421
1.59268
2.23712
2.81966
3.17682
3.30785
3.3396
3.35307
3.35162
3.34466
3.34122
3.33759
3.3353
3.33395
3.33203
3.32872
3.32472
3.32346
3.32436
3.32551
3.32706
3.32892
3.33013
3.33083
3.33126
3.33155
3.3317
3.33106
3.32931
3.32735
3.32663
3.32666
3.32704
3.32765
3.32899
1
1
1
1
1
1
1
1
1
1
1
1
1
1
1
1
1
1
1
1
1
1
1
1
1
1
1
1
1
1
1
1
1
1
1
1
1
1
1
1
1
1
1
0.999999
1.00009
1.00421
1.03817
1.27296
1.84316
2.52123
2.93666
3.13515
3.25403
3.31622
3.31505
3.32122
3.32913
3.3335
3.33435
3.33391
3.33233
3.32891
3.32619
3.32616
3.32629
3.32745
3.33043
3.33221
3.33288
3.33314
3.33266
3.33161
3.33078
3.33001
3.32877
3.32827
3.32803
3.3276
3.32763
3.32856
1
1
1
1
1
1
1
1
1
1
1
1
1
1
1
1
1
1
1
1
1
1
1
1
1
1
1
1
1
1
1
1
1
1
1
1
1
1
1
1
1
1
1
1
1
1
1.00032
1.01136
1.08713
1.41937
2.10452
2.84376
3.09604
3.21514
3.25075
3.27308
3.29421
3.30928
3.3168
3.31704
3.31662
3.31801
3.31995
3.32185
3.32405
3.32634
3.32825
3.33013
3.33131
3.33185
3.3313
3.32984
3.32853
3.32757
3.32783
3.32824
3.32822
3.32801
3.3273
3.32704
1
1
1
1
1
1
1
1
1
1
1
1
1
1
1
1
1
1
1
1
1
1
1
1
1
1
1
1
1
1
1
1
1
1
1
1
1
1
1
1
1
1
1
1
1
1
1
1.00004
1.00124
1.02716
1.18192
1.68149
2.42966
3.03612
3.26847
3.29297
3.31903
3.32352
3.32031
3.31646
3.31355
3.3147
3.31661
3.31893
3.32205
3.32476
3.32619
3.32778
3.32948
3.32997
3.32949
3.32725
3.32491
3.32462
3.32543
3.32643
3.32713
3.3277
3.32675
3.32509
1
1
1
1
1
1
1
1
1
1
1
1
1
1
1
1
1
1
1
1
1
1
1
1
1
1
1
1
1
1
1
1
1
1
1
1
1
1
1
1
1
1
1
1
1
1
1
1
1
1.00025
1.00497
1.07512
1.38255
2.02807
2.74919
3.16238
3.32594
3.35211
3.35761
3.34984
3.33219
3.32679
3.32574
3.32538
3.32663
3.32842
3.32887
3.32946
3.33108
3.33191
3.33114
3.32761
3.32294
3.32098
3.32171
3.32433
3.3263
3.32705
3.32704
3.32533
1
1
1
1
1
1
1
1
1
1
1
1
1
1
1
1
1
1
1
1
1
1
1
1
1
1
1
1
1
1
1
1
1
1
1
1
1
1
1
1
1
1
1
1
1
1
1
1
1
1
1.00001
1.0015
1.01978
1.19039
1.75746
2.50771
2.95143
3.16185
3.29831
3.31693
3.31234
3.31459
3.31888
3.32186
3.32552
3.32775
3.32887
3.32979
3.33163
3.33376
3.33398
3.33094
3.3248
3.31964
3.31819
3.31995
3.32428
3.32673
3.32708
3.32643
1
1
1
1
1
1
1
1
1
1
1
1
1
1
1
1
1
1
1
1
1
1
1
1
1
1
1
1
1
1
1
1
1
1
1
1
1
1
1
1
1
1
1
1
1
1
1
1
1
1
1
1
1.00015
1.00799
1.07999
1.45203
2.17337
2.94925
3.204
3.26371
3.26728
3.27474
3.29087
3.3072
3.31275
3.31668
3.31885
3.31968
3.32381
3.33138
3.3345
3.33373
3.32972
3.32247
3.31757
3.31695
3.31852
3.32335
3.32724
3.32746
1
1
1
1
1
1
1
1
1
1
1
1
1
1
1
1
1
1
1
1
1
1
1
1
1
1
1
1
1
1
1
1
1
1
1
1
1
1
1
1
1
1
1
1
1
1
1
1
1
1
1
1
1
1.00005
1.00151
1.03802
1.24431
1.86561
2.68442
3.1542
3.30519
3.32753
3.32505
3.32455
3.32852
3.32832
3.3212
3.31555
3.31664
3.32378
3.33345
3.33639
3.33539
3.33113
3.32214
3.31761
3.31809
3.32045
3.32447
3.32586
1
1
1
1
1
1
1
1
1
1
1
1
1
1
1
1
1
1
1
1
1
1
1
1
1
1
1
1
1
1
1
1
1
1
1
1
1
1
1
1
1
1
1
1
1
1
1
1
1
1
1
1
1
1
1
1.00061
1.0108
1.14156
1.64287
2.38815
2.98102
3.26179
3.31356
3.31679
3.34061
3.35024
3.34473
3.32701
3.31483
3.31633
3.32586
3.33669
3.33905
3.3377
3.33236
3.32417
3.32121
3.32181
3.32475
3.32584
1
1
1
1
1
1
1
1
1
1
1
1
1
1
1
1
1
1
1
1
1
1
1
1
1
1
1
1
1
1
1
1
1
1
1
1
1
1
1
1
1
1
1
1
1
1
1
1
1
1
1
1
1
1
1
1
1.00009
1.00529
1.06462
1.45378
2.23346
2.95811
3.09807
3.18613
3.28357
3.34071
3.33985
3.32455
3.30226
3.29641
3.30369
3.31967
3.33304
3.33461
3.33325
3.32872
3.32521
3.32567
3.32872
3.32964
1
1
1
1
1
1
1
1
1
1
1
1
1
1
1
1
1
1
1
1
1
1
1
1
1
1
1
1
1
1
1
1
1
1
1
1
1
1
1
1
1
1
1
1
1
1
1
1
1
1
1
1
1
1
1
1
1
1.00003
1.00154
1.04467
1.27169
1.99165
2.82314
3.21648
3.30644
3.33238
3.33542
3.33301
3.31564
3.29791
3.29758
3.3039
3.31695
3.32289
3.32424
3.32425
3.32477
3.32643
3.32967
3.33259
1
1
1
1
1
1
1
1
1
1
1
1
1
1
1
1
1
1
1
1
1
1
1
1
1
1
1
1
1
1
1
1
1
1
1
1
1
1
1
1
1
1
1
1
1
1
1
1
1
1
1
1
1
1
1
1
1
1
1.00001
1.0009
1.01609
1.20291
1.84277
2.60797
3.10054
3.32855
3.35934
3.36659
3.36162
3.34467
3.32712
3.31907
3.31771
3.32297
3.32457
3.32283
3.32053
3.32155
3.32594
3.3336
1
1
1
1
1
1
1
1
1
1
1
1
1
1
1
1
1
1
1
1
1
1
1
1
1
1
1
1
1
1
1
1
1
1
1
1
1
1
1
1
1
1
1
1
1
1
1
1
1
1
1
1
1
1
1
1
1
1
1
1
1.00024
1.01085
1.13344
1.71095
2.55306
3.06379
3.17387
3.28231
3.34089
3.34078
3.33051
3.32532
3.32907
3.3368
3.33785
3.33311
3.3217
3.32038
3.32247
3.33657
1
1
1
1
1
1
1
1
1
1
1
1
1
1
1
1
1
1
1
1
1
1
1
1
1
1
1
1
1
1
1
1
1
1
1
1
1
1
1
1
1
1
1
1
1
1
1
1
1
1
1
1
1
1
1
1
1
1
1
1
1
1.00014
1.00607
1.10474
1.52941
2.43367
2.98522
3.19676
3.28601
3.28947
3.2903
3.29655
3.3146
3.33627
3.33987
3.3363
3.32681
3.32283
3.32234
3.42528
1
1
1
1
1
1
1
1
1
1
1
1
1
1
1
1
1
1
1
1
1
1
1
1
1
1
1
1
1
1
1
1
1
1
1
1
1
1
1
1
1
1
1
1
1
1
1
1
1
1
1
1
1
1
1
1
1
1
1
1
1
1
1.00006
1.00421
1.05914
1.42759
2.29939
3.02714
3.29542
3.29108
3.29963
3.31104
3.31783
3.32554
3.33191
3.33088
3.3257
3.32176
3.32583
3.99677
1
1
1
1
1
1
1
1
1
1
1
1
1
1
1
1
1
1
1
1
1
1
1
1
1
1
1
1
1
1
1
1
1
1
1
1
1
1
1
1
1
1
1
1
1
1
1
1
1
1
1
1
1
1
1
1
1
1
1
1
1
1
1
1.00004
1.00168
1.0502
1.41579
2.21313
2.88143
3.23868
3.3535
3.34641
3.32423
3.32409
3.33208
3.33257
3.32618
3.33084
3.49179
5.59127
1
1
1
1
1
1
1
1
1
1
1
1
1
1
1
1
1
1
1
1
1
1
1
1
1
1
1
1
1
1
1
1
1
1
1
1
1
1
1
1
1
1
1
1
1
1
1
1
1
1
1
1
1
1
1
1
1
1
1
1
1
1
1
1
1.00002
1.00221
1.04046
1.36132
2.15963
3.06279
3.25344
3.23985
3.25802
3.28696
3.3254
3.33591
3.35561
3.64514
5.02555
7.63679
1
1
1
1
1
1
1
1
1
1
1
1
1
1
1
1
1
1
1
1
1
1
1
1
1
1
1
1
1
1
1
1
1
1
1
1
1
1
1
1
1
1
1
1
1
1
1
1
1
1
1
1
1
1
1
1
1
1
1
1
1
1
1
1
1
1.00003
1.00114
1.04058
1.31967
2.17723
2.90399
3.24993
3.31156
3.30502
3.32951
3.38132
3.8388
5.41681
7.58519
8.45338
1
1
1
1
1
1
1
1
1
1
1
1
1
1
1
1
1
1
1
1
1
1
1
1
1
1
1
1
1
1
1
1
1
1
1
1
1
1
1
1
1
1
1
1
1
1
1
1
1
1
1
1
1
1
1
1
1
1
1
1
1
1
1
1
1
1
1.00001
1.00146
1.02982
1.32333
2.1491
3.05678
3.0864
3.13953
3.31984
4.04998
5.98754
7.85701
8.71991
8.72577
1
1
1
1
1
1
1
1
1
1
1
1
1
1
1
1
1
1
1
1
1
1
1
1
1
1
1
1
1
1
1
1
1
1
1
1
1
1
1
1
1
1
1
1
1
1
1
1
1
1
1
1
1
1
1
1
1
1
1
1
1
1
1
1
1
1
1
1.00001
1.00103
1.03252
1.32685
2.21681
2.87136
3.68923
4.56555
6.31052
7.56662
8.43886
8.7396
8.6737
1
1
1
1
1
1
1
1
1
1
1
1
1
1
1
1
1
1
1
1
1
1
1
1
1
1
1
1
1
1
1
1
1
1
1
1
1
1
1
1
1
1
1
1
1
1
1
1
1
1
1
1
1
1
1
1
1
1
1
1
1
1
1
1
1
1
1
1
1.00001
1.00109
1.04166
1.36804
2.70451
4.72952
7.30007
9.41368
9.45127
9.09386
8.63878
8.53909
)
;

boundaryField
{
    inlet
    {
        type            fixedValue;
        value           uniform 1;
    }
    outlet
    {
        type            zeroGradient;
    }
    bottom
    {
        type            symmetryPlane;
    }
    top
    {
        type            symmetryPlane;
    }
    obstacle
    {
        type            zeroGradient;
    }
    defaultFaces
    {
        type            empty;
    }
}


// ************************************************************************* //
