/*--------------------------------*- C++ -*----------------------------------*\
| =========                 |                                                 |
| \\      /  F ield         | OpenFOAM: The Open Source CFD Toolbox           |
|  \\    /   O peration     | Version:  2206                                  |
|   \\  /    A nd           | Website:  www.openfoam.com                      |
|    \\/     M anipulation  |                                                 |
\*---------------------------------------------------------------------------*/
FoamFile
{
    version     2.0;
    format      ascii;
    arch        "LSB;label=32;scalar=64";
    class       volVectorField;
    location    "0.18";
    object      U;
}
// * * * * * * * * * * * * * * * * * * * * * * * * * * * * * * * * * * * * * //

dimensions      [0 1 -1 0 0 0 0];

internalField   nonuniform List<vector> 
4800
(
(3.60606 1.01251e-14 0)
(3.60606 1.1462e-14 0)
(3.60606 3.81466e-14 0)
(3.60606 1.1667e-13 0)
(3.60606 1.18604e-13 0)
(3.60606 1.41564e-13 0)
(3.60606 9.10124e-14 0)
(3.60606 1.92467e-14 0)
(3.60606 2.25472e-14 0)
(3.60606 6.29775e-15 0)
(3.60606 -1.30056e-14 0)
(3.60606 -1.24955e-14 0)
(3.60606 7.15123e-14 0)
(3.60606 1.48296e-13 0)
(3.60606 1.19001e-13 0)
(3.60606 8.68117e-14 0)
(3.60606 2.49576e-14 0)
(3.60606 -1.14786e-14 0)
(3.60606 -6.71849e-14 0)
(3.60606 -4.00903e-14 0)
(3.60606 -3.70231e-14 0)
(3.60606 -4.18839e-14 0)
(3.60606 -3.36958e-14 0)
(3.60606 -4.80616e-14 0)
(3.60606 -1.02378e-13 0)
(3.60606 -5.72832e-14 0)
(3.60606 -1.84065e-14 0)
(3.60606 -5.84368e-14 0)
(3.60606 -5.62931e-14 0)
(3.60606 -4.74615e-14 0)
(3.60606 -1.16687e-14 0)
(3.60606 3.97069e-15 0)
(3.60606 1.03368e-13 0)
(3.60606 1.41718e-13 0)
(3.60606 1.65049e-13 0)
(3.60606 1.69299e-13 0)
(3.60606 8.88353e-14 0)
(3.60606 -4.00603e-14 0)
(3.60606 -7.703e-14 0)
(3.60606 -7.29126e-14 0)
(3.60606 1.44658e-14 0)
(3.60606 2.22372e-15 0)
(3.60606 2.21438e-14 0)
(3.60606 7.76534e-14 0)
(3.60606 8.31244e-14 0)
(3.60606 7.28026e-14 0)
(3.60606 -2.59478e-14 0)
(3.60606 -5.02753e-14 0)
(3.60606 -3.14921e-14 0)
(3.60606 -4.28574e-14 0)
(3.60606 -9.42796e-14 0)
(3.60606 -7.63065e-14 0)
(3.60606 1.33023e-13 0)
(3.60606 1.62835e-13 0)
(3.60606 1.22691e-13 0)
(3.60606 6.91753e-14 0)
(3.60606 -2.73381e-16 0)
(3.60606 -5.89302e-14 0)
(3.60606 -3.851e-14 0)
(3.60606 -4.11071e-15 0)
(3.60606 1.31389e-14 0)
(3.60606 2.90117e-14 0)
(3.60606 2.47009e-14 0)
(3.60606 -1.39357e-14 0)
(3.60606 -6.42278e-14 0)
(3.60606 -7.56464e-14 0)
(3.60606 -9.49397e-14 0)
(3.60606 -6.82651e-14 0)
(3.60606 -2.85916e-14 0)
(3.60606 -2.71714e-15 0)
(3.60606 3.73998e-14 0)
(3.60606 9.72168e-14 0)
(3.60606 1.90676e-13 0)
(3.60606 2.16187e-13 0)
(3.60606 2.02595e-13 0)
(3.60606 1.70753e-13 0)
(3.60606 8.61482e-14 0)
(3.60606 2.55544e-14 0)
(3.60606 1.24788e-14 0)
(3.60606 -5.18355e-14 0)
(3.60606 9.38829e-15 0)
(3.60606 1.97234e-14 0)
(3.60606 2.60612e-14 0)
(3.60606 1.28456e-14 0)
(3.60606 1.76964e-14 0)
(3.60606 -1.78664e-14 0)
(3.60606 -6.85818e-14 0)
(3.60606 -1.07992e-13 0)
(3.60606 -1.37067e-13 0)
(3.60606 -1.06105e-13 0)
(3.60606 -1.12403e-13 0)
(3.60606 1.89166e-14 0)
(3.60606 6.25108e-14 0)
(3.60606 2.19271e-14 0)
(3.60606 3.98335e-14 0)
(3.60606 2.8795e-14 0)
(3.60606 -1.51393e-14 0)
(3.60606 -1.42025e-15 0)
(3.60606 6.97554e-14 0)
(3.60606 9.89771e-14 0)
(3.60606 1.1719e-13 0)
(3.60606 1.36053e-13 0)
(3.60606 1.31629e-13 0)
(3.60606 1.16563e-13 0)
(3.60606 1.23445e-13 0)
(3.60606 2.12337e-14 0)
(3.60606 -1.32026e-13 0)
(3.60606 -1.68582e-13 0)
(3.60606 -8.71651e-14 0)
(3.60606 -1.00351e-15 0)
(3.60606 2.24172e-14 0)
(3.60606 5.59563e-14 0)
(3.60606 6.73583e-14 0)
(3.60606 1.3666e-13 0)
(3.60606 1.30479e-13 0)
(3.60606 9.66934e-14 0)
(3.60606 7.38161e-14 0)
(3.60606 3.39025e-14 0)
(3.60606 1.85932e-14 0)
(3.60606 -2.23276e-14 0)
(3.60606 3.57062e-14 0)
(3.60606 3.66063e-14 0)
(3.60606 1.39157e-14 0)
(3.60606 -3.31057e-15 0)
(3.60606 -3.12821e-14 0)
(3.60606 -1.19054e-14 0)
(3.60606 -3.6823e-14 0)
(3.60606 -6.60047e-14 0)
(3.60606 -9.54898e-14 0)
(3.60606 -8.95921e-14 0)
(3.60606 -1.94167e-14 0)
(3.60606 5.39693e-14 0)
(3.60606 4.86484e-14 0)
(3.60606 7.07355e-14 0)
(3.60606 9.73401e-14 0)
(3.60606 1.22361e-13 0)
(3.60606 1.08685e-13 0)
(3.60606 1.23898e-13 0)
(3.60606 1.25668e-13 0)
(3.60606 1.08745e-13 0)
(3.60606 1.12646e-13 0)
(3.60606 8.86086e-14 0)
(3.60606 9.11957e-14 0)
(3.60606 9.661e-14 0)
(3.60606 6.20807e-14 0)
(3.60606 -3.3029e-14 0)
(3.60606 -1.15007e-13 0)
(3.60606 -1.19637e-13 0)
(3.60606 -1.7224e-13 0)
(3.60606 -1.19827e-13 0)
(3.60606 -9.91505e-14 0)
(3.60606 -8.33277e-14 0)
(3.60606 -5.58396e-14 0)
(3.60606 8.03372e-14 0)
(3.60606 1.31749e-13 0)
(3.60606 1.33996e-13 0)
(3.60606 7.5073e-14 0)
(3.60606 1.945e-14 0)
(3.60606 3.24123e-14 0)
(3.60606 3.53575e-14 0)
(3.60606 1.88032e-14 0)
(3.60606 2.81682e-14 0)
(3.60606 -1.63762e-14 0)
(3.60606 -4.91418e-14 0)
(3.60606 -8.61315e-14 0)
(3.60606 -8.24609e-14 0)
(3.60606 -5.1849e-14 0)
(3.60606 7.35894e-14 0)
(3.60606 8.62282e-14 0)
(3.60606 1.25655e-14 0)
(3.60606 2.1107e-14 0)
(3.60606 3.91801e-14 0)
(3.60606 6.05738e-14 0)
(3.60606 7.98905e-14 0)
(3.60606 1.09869e-13 0)
(3.60606 1.81535e-13 0)
(3.60606 1.79244e-13 0)
(3.60606 1.80298e-13 0)
(3.60606 1.37337e-13 0)
(3.60606 4.90218e-14 0)
(3.60606 6.47945e-14 0)
(3.60606 7.20791e-14 0)
(3.60606 8.64283e-14 0)
(3.60606 5.05754e-14 0)
(3.60606 -4.10704e-14 0)
(3.60606 -1.78341e-13 0)
(3.60606 -1.7246e-13 0)
(3.60606 -1.34793e-13 0)
(3.60606 -7.17024e-14 0)
(3.60606 -6.29975e-14 0)
(3.60606 -9.40562e-14 0)
(3.60606 -9.02523e-14 0)
(3.60606 4.44843e-14 0)
(3.60606 7.60665e-14 0)
(3.60606 1.04908e-13 0)
(3.60606 1.39284e-13 0)
(3.60606 1.33816e-13 0)
(3.60606 1.41778e-13 0)
(3.60606 1.56934e-13 0)
(3.60606 1.06873e-13 0)
(3.60606 -1.90033e-14 0)
(3.60606 -2.21905e-14 0)
(3.60606 -2.30373e-15 0)
(3.60606 -2.62745e-14 0)
(3.60606 -1.61995e-14 0)
(3.60606 2.73047e-15 0)
(3.60606 1.09942e-13 0)
(3.60606 1.44812e-13 0)
(3.60606 1.76737e-13 0)
(3.60606 1.9309e-13 0)
(3.60606 1.59414e-13 0)
(3.60606 1.5729e-13 0)
(3.60606 1.29089e-13 0)
(3.60606 9.22893e-14 0)
(3.60606 1.20984e-13 0)
(3.60606 7.77801e-14 0)
(3.60606 4.74582e-14 0)
(3.60606 -1.10019e-15 0)
(3.60606 -6.0087e-14 0)
(3.60606 -7.03221e-14 0)
(3.60606 -7.62365e-14 0)
(3.60606 -8.73017e-14 0)
(3.60606 -7.93504e-14 0)
(3.60606 -9.67067e-14 0)
(3.60606 -8.99889e-14 0)
(3.60606 -1.11613e-13 0)
(3.60606 -1.10416e-13 0)
(3.60606 -1.03198e-13 0)
(3.60606 -5.45461e-14 0)
(3.60606 -2.11703e-14 0)
(3.60606 3.92734e-15 0)
(3.60606 -1.44692e-15 0)
(3.60606 -4.87984e-14 0)
(3.60606 -5.32192e-14 0)
(3.60606 -5.06421e-15 0)
(3.60606 -2.9075e-14 0)
(3.60606 -4.84684e-14 0)
(3.60606 5.71165e-14 0)
(3.60606 9.48164e-14 0)
(3.60606 -7.29006e-14 0)
(3.60606 -1.39958e-14 0)
(3.60606 -1.91566e-14 0)
(3.60606 -6.08438e-15 0)
(3.60606 -3.04119e-14 0)
(3.60606 -3.37658e-14 0)
(3.60606 2.00868e-14 0)
(3.60606 7.3386e-14 0)
(3.60606 8.3281e-14 0)
(3.60606 1.41541e-13 0)
(3.60606 1.72506e-13 0)
(3.60606 1.97671e-13 0)
(3.60606 1.32343e-13 0)
(3.60606 6.3901e-14 0)
(3.60606 6.18707e-14 0)
(3.60606 5.09255e-14 0)
(3.60606 -2.09503e-14 0)
(3.60606 -3.00985e-14 0)
(3.60606 -9.22726e-14 0)
(3.60606 -1.62121e-13 0)
(3.60606 -1.59301e-13 0)
(3.60606 -1.90276e-13 0)
(3.60606 -1.68126e-13 0)
(3.60606 -1.41118e-13 0)
(3.60606 -1.23708e-13 0)
(3.60606 -9.81603e-14 0)
(3.60606 -5.64497e-14 0)
(3.60606 -6.71849e-14 0)
(3.60606 -5.20257e-14 0)
(3.60606 -8.72084e-14 0)
(3.60606 -1.20658e-13 0)
(3.60606 -8.8752e-14 0)
(3.60606 -7.95604e-14 0)
(3.60606 -1.04168e-13 0)
(3.60606 -9.19359e-14 0)
(3.60606 -6.98087e-14 0)
(3.60606 -1.03541e-13 0)
(3.60606 -1.30222e-13 0)
(3.60606 -6.22474e-14 0)
(3.60606 4.39976e-14 0)
(3.60606 4.88537e-14 0)
(3.60606 1.23588e-14 0)
(3.60606 1.23888e-14 0)
(3.60606 5.43427e-16 0)
(3.60606 -1.19754e-14 0)
(3.60606 -3.57528e-14 0)
(3.60606 -4.59313e-14 0)
(3.60606 -5.07388e-14 0)
(3.60606 -3.02186e-14 0)
(3.60606 3.34224e-14 0)
(3.60606 7.00588e-14 0)
(3.60606 6.81684e-14 0)
(3.60606 1.41591e-14 0)
(3.60606 -2.55677e-14 0)
(3.60606 -5.08821e-14 0)
(3.60606 -8.86586e-14 0)
(3.60606 -8.4878e-14 0)
(3.60606 -1.20207e-13 0)
(3.60606 -9.17758e-14 0)
(3.60606 -9.70801e-14 0)
(3.60606 -1.1328e-13 0)
(3.60606 -1.06355e-13 0)
(3.60606 -8.96155e-14 0)
(3.60606 -8.83353e-14 0)
(3.60606 -9.37495e-14 0)
(3.60606 -9.73868e-14 0)
(3.60606 -6.9502e-14 0)
(3.60606 -1.14323e-13 0)
(3.60606 -1.28195e-13 0)
(3.60606 -1.34567e-13 0)
(3.60606 -1.05218e-13 0)
(3.60606 -6.08338e-14 0)
(3.60606 -4.11371e-14 0)
(3.60606 -1.10319e-14 0)
(3.60606 -2.25239e-14 0)
(3.60606 -6.60747e-14 0)
(3.60606 -1.22044e-13 0)
(3.60606 -1.11623e-13 0)
(3.60606 -4.4681e-14 0)
(3.60606 -1.65662e-14 0)
(3.60606 -5.74391e-14 0)
(3.60606 4.21406e-15 0)
(3.60606 1.56894e-14 0)
(3.60606 -3.41726e-15 0)
(3.60606 -1.45358e-15 0)
(3.60606 -5.83667e-14 0)
(3.60606 -9.98072e-14 0)
(3.60606 -4.4151e-14 0)
(3.60606 -3.05819e-14 0)
(3.60606 1.23588e-14 0)
(3.60606 4.38709e-14 0)
(3.60606 -1.30156e-14 0)
(3.60606 -5.46294e-14 0)
(3.60606 -8.32044e-14 0)
(3.60606 -1.25658e-13 0)
(3.60606 -2.1131e-13 0)
(3.60606 -1.93313e-13 0)
(3.60606 -1.86729e-13 0)
(3.60606 -1.38304e-13 0)
(3.60606 -9.57932e-14 0)
(3.60606 -7.3116e-14 0)
(3.60606 -6.85785e-15 0)
(3.60606 -2.45376e-14 0)
(3.60606 -1.14156e-13 0)
(3.60606 -1.96397e-13 0)
(3.60606 -1.93073e-13 0)
(3.60606 -1.72593e-13 0)
(3.60606 -1.40128e-13 0)
(3.60606 -1.53103e-13 0)
(3.60606 -9.35562e-14 0)
(3.60606 -1.75464e-14 0)
(3.60606 -1.30823e-14 0)
(3.60606 -1.65695e-14 0)
(3.60606 -4.96052e-14 0)
(3.60606 -1.04251e-13 0)
(3.60606 -8.86853e-14 0)
(3.60606 -3.16321e-14 0)
(3.60606 -4.27707e-14 0)
(3.60606 -2.73414e-14 0)
(3.60606 -8.41445e-14 0)
(3.60606 -1.60658e-13 0)
(3.60606 -1.67362e-15 0)
(3.60606 -6.68449e-15 0)
(3.60606 1.59261e-14 0)
(3.60606 2.40408e-14 0)
(3.60606 -3.14054e-15 0)
(3.60606 2.70513e-14 0)
(3.60606 5.45528e-14 0)
(3.60606 7.1209e-14 0)
(3.60606 5.05587e-14 0)
(3.60606 -5.40093e-16 0)
(3.60606 -1.24855e-14 0)
(3.60606 -2.32573e-14 0)
(3.60606 -5.29358e-14 0)
(3.60606 -6.9642e-14 0)
(3.60606 -1.35037e-13 0)
(3.60606 -1.67356e-13 0)
(3.60606 -1.25115e-13 0)
(3.60606 -1.3365e-13 0)
(3.60606 -9.97439e-14 0)
(3.60606 -8.28743e-14 0)
(3.60606 -6.59714e-14 0)
(3.60606 -5.91269e-14 0)
(3.60606 -5.45328e-14 0)
(3.60606 -3.50361e-14 0)
(3.60606 -4.04303e-14 0)
(3.60606 -1.98268e-14 0)
(3.60606 -4.60046e-14 0)
(3.60606 -7.55931e-14 0)
(3.60606 -6.36277e-14 0)
(3.60606 -8.58415e-14 0)
(3.60606 -1.19774e-13 0)
(3.60606 -1.56957e-13 0)
(3.60606 -1.79738e-13 0)
(3.60606 -1.45415e-13 0)
(3.60606 -1.26449e-13 0)
(3.60606 -6.79517e-14 0)
(3.60606 -4.70081e-15 0)
(3.60606 -1.70263e-14 0)
(3.60606 -6.5628e-14 0)
(3.60606 -5.6087e-14 0)
(3.60606 -1.41458e-14 0)
(3.60606 -4.11171e-14 0)
(3.60606 -1.20121e-14 0)
(3.60606 -1.39291e-14 0)
(3.60606 2.1507e-14 0)
(3.60606 7.04288e-14 0)
(3.60606 5.66931e-14 0)
(3.60606 5.9657e-14 0)
(3.60606 4.11904e-14 0)
(3.60606 -5.50462e-14 0)
(3.60606 -2.57544e-14 0)
(3.60606 2.23439e-14 0)
(3.60606 5.67698e-14 0)
(3.60606 5.69732e-14 0)
(3.60606 8.84319e-14 0)
(3.60606 8.06273e-14 0)
(3.60606 -1.39624e-14 0)
(3.60606 -5.28425e-15 0)
(3.60606 8.25142e-15 0)
(3.60606 5.01987e-14 0)
(3.60606 4.00736e-15 0)
(3.60606 3.22256e-14 0)
(3.60606 6.61148e-14 0)
(3.60606 5.68165e-14 0)
(3.60606 2.97151e-14 0)
(3.60606 9.14491e-15 0)
(3.60606 5.70399e-14 0)
(3.60606 -2.60245e-14 0)
(3.60606 -2.11887e-13 0)
(3.60606 -2.50223e-13 0)
(3.60606 -2.6814e-13 0)
(3.60606 -2.83242e-13 0)
(3.60606 -2.8919e-13 0)
(3.60606 -1.99694e-13 0)
(3.60606 -1.62025e-13 0)
(3.60606 -1.17984e-13 0)
(3.60606 7.00188e-14 0)
(3.60606 1.20471e-13 0)
(3.60606 1.3266e-13 0)
(3.60606 1.65759e-13 0)
(3.60606 -3.97069e-15 0)
(3.60606 -5.84101e-15 0)
(3.60606 -5.57096e-14 0)
(3.60606 -7.40695e-14 0)
(3.60606 -4.78616e-14 0)
(3.60606 -5.12022e-14 0)
(3.60606 -6.3481e-14 0)
(3.60606 -4.25774e-14 0)
(3.60606 -2.98985e-14 0)
(3.60606 -5.55363e-14 0)
(3.60606 -9.18159e-14 0)
(3.60606 -1.45759e-14 0)
(3.60606 -1.71096e-14 0)
(3.60606 -4.47377e-14 0)
(3.60606 -6.44911e-14 0)
(3.60606 -6.74983e-14 0)
(3.60606 -9.55532e-14 0)
(3.60606 -8.84486e-14 0)
(3.60606 7.26125e-15 0)
(3.60606 8.2731e-14 0)
(3.60606 7.57097e-14 0)
(3.60606 1.23475e-13 0)
(3.60606 9.95105e-14 0)
(3.60606 -8.39812e-14 0)
(3.60606 -1.83865e-13 0)
(3.60606 -2.1379e-13 0)
(3.60606 -1.44688e-13 0)
(3.60606 -9.64e-14 0)
(3.60606 -1.16067e-13 0)
(3.60606 -2.48976e-13 0)
(3.60606 -2.94608e-13 0)
(3.60606 -2.70837e-13 0)
(3.60606 -3.00295e-13 0)
(3.60606 -1.83825e-13 0)
(3.60606 -4.68214e-14 0)
(3.60606 2.51877e-14 0)
(3.60606 1.3533e-13 0)
(3.60606 1.60808e-13 0)
(3.60606 1.79444e-13 0)
(3.60606 2.18965e-13 0)
(3.60606 1.38624e-14 0)
(3.60606 1.18787e-14 0)
(3.60606 -4.2274e-15 0)
(3.60606 4.19706e-14 0)
(3.60606 5.60397e-14 0)
(3.60606 2.31707e-15 0)
(3.60606 1.60028e-14 0)
(3.60606 8.04806e-15 0)
(3.60606 -5.74099e-15 0)
(3.60606 -4.85417e-15 0)
(3.60606 -3.43659e-14 0)
(3.60606 -1.18204e-13 0)
(3.60606 -1.21488e-13 0)
(3.60606 -1.37454e-13 0)
(3.60606 -2.01792e-13 0)
(3.60606 -1.95867e-13 0)
(3.60606 -1.68956e-13 0)
(3.60606 -1.63408e-13 0)
(3.60606 -1.31583e-13 0)
(3.60606 -6.04438e-14 0)
(3.60606 -3.4736e-14 0)
(3.60606 -8.43712e-14 0)
(3.60606 -1.64022e-13 0)
(3.60606 -1.74e-13 0)
(3.60606 -1.70649e-13 0)
(3.60606 -1.86469e-13 0)
(3.60606 -1.54753e-13 0)
(3.60606 -1.17687e-13 0)
(3.60606 -1.34297e-13 0)
(3.60606 -1.46955e-13 0)
(3.60606 -9.59699e-14 0)
(3.60606 -8.83019e-14 0)
(3.60606 -7.9407e-14 0)
(3.60606 -2.14837e-14 0)
(3.60606 5.75399e-14 0)
(3.60606 1.80224e-13 0)
(3.60606 1.76014e-13 0)
(3.60606 1.39841e-13 0)
(3.60606 1.39301e-13 0)
(3.60606 1.55827e-13 0)
(3.60606 -2.04235e-14 0)
(3.60606 -1.10452e-14 0)
(3.60606 8.34544e-14 0)
(3.60606 1.48412e-13 0)
(3.60606 1.21528e-13 0)
(3.60606 5.769e-14 0)
(3.60606 4.05003e-14 0)
(3.60606 -3.39525e-14 0)
(3.60606 -1.15523e-13 0)
(3.60606 -1.59081e-13 0)
(3.60606 -1.28716e-13 0)
(3.60606 -1.48412e-13 0)
(3.60606 -1.13576e-13 0)
(3.60606 -1.19394e-13 0)
(3.60606 -1.17384e-13 0)
(3.60606 -5.9557e-14 0)
(3.60606 -1.04641e-13 0)
(3.60606 -1.1657e-13 0)
(3.60606 -1.55173e-13 0)
(3.60606 -1.57467e-13 0)
(3.60606 -1.63742e-13 0)
(3.60606 -2.16464e-13 0)
(3.60606 -2.38301e-13 0)
(3.60606 -1.17597e-13 0)
(3.60606 -3.43359e-14 0)
(3.60606 -3.86167e-14 0)
(3.60606 -6.45045e-14 0)
(3.60606 -1.21888e-13 0)
(3.60606 -1.58444e-13 0)
(3.60606 -1.28309e-13 0)
(3.60606 -2.82682e-14 0)
(3.60606 3.02752e-14 0)
(3.60606 1.10999e-13 0)
(3.60606 1.3767e-13 0)
(3.60606 1.50683e-13 0)
(3.60606 2.05829e-13 0)
(3.60606 1.67439e-13 0)
(3.60606 1.82195e-13 0)
(3.60606 1.84895e-13 0)
(3.60606 1.23053e-13 0)
(3.60606 -2.11003e-14 0)
(3.60606 -1.92233e-14 0)
(3.60606 2.83049e-15 0)
(3.60606 2.98652e-14 0)
(3.60606 2.73047e-15 0)
(3.60606 5.96336e-14 0)
(3.60606 3.857e-14 0)
(3.60606 -3.10187e-14 0)
(3.60606 -1.57744e-13 0)
(3.60606 -1.25975e-13 0)
(3.60606 -5.50595e-14 0)
(3.60606 3.47727e-15 0)
(3.60606 3.44893e-14 0)
(3.60606 -3.37758e-14 0)
(3.60606 -4.48411e-14 0)
(3.60606 2.91884e-14 0)
(3.60606 8.24909e-14 0)
(3.60606 5.14255e-14 0)
(3.60606 2.95051e-14 0)
(3.60606 -2.40008e-14 0)
(3.60606 -1.34543e-13 0)
(3.60606 -1.26228e-13 0)
(3.60606 -1.59624e-13 0)
(3.60606 -2.53634e-13 0)
(3.60606 -2.42815e-13 0)
(3.60606 -1.43725e-13 0)
(3.60606 -8.16474e-14 0)
(3.60606 -9.25293e-14 0)
(3.60606 -9.66867e-14 0)
(3.60606 -8.25509e-14 0)
(3.60606 -4.88984e-14 0)
(3.60606 8.4948e-15 0)
(3.60606 1.44478e-13 0)
(3.60606 2.16294e-13 0)
(3.60606 1.26298e-13 0)
(3.60606 -2.41675e-14 0)
(3.60606 -1.48592e-13 0)
(3.60606 -1.65889e-13 0)
(3.60606 -2.07442e-13 0)
(3.60606 -1.96627e-13 0)
(3.60606 3.87467e-14 0)
(3.60606 1.1332e-14 0)
(3.60606 -5.59063e-14 0)
(3.60606 -5.89335e-14 0)
(3.60606 -5.06921e-14 0)
(3.60606 2.34274e-14 0)
(3.60606 6.24174e-14 0)
(3.60606 3.34824e-14 0)
(3.60606 -1.5706e-14 0)
(3.60606 5.9947e-14 0)
(3.60606 1.04625e-13 0)
(3.60606 1.32923e-13 0)
(3.60606 1.02811e-13 0)
(3.60606 5.95536e-14 0)
(3.60606 2.40008e-14 0)
(3.60606 7.02055e-14 0)
(3.60606 2.25286e-13 0)
(3.60606 2.47029e-13 0)
(3.60606 1.49359e-13 0)
(3.60606 4.43743e-14 0)
(3.60606 -4.20639e-14 0)
(3.60606 -8.98589e-14 0)
(3.60606 -8.4658e-14 0)
(3.60606 -1.27312e-13 0)
(3.60606 -1.23241e-13 0)
(3.60606 -1.41438e-13 0)
(3.60606 -1.07045e-13 0)
(3.60606 -4.33308e-14 0)
(3.60606 -4.68081e-14 0)
(3.60606 -6.81418e-14 0)
(3.60606 -9.34028e-14 0)
(3.60606 -6.05471e-14 0)
(3.60606 -1.39057e-14 0)
(3.60606 1.1342e-14 0)
(3.60606 -8.77818e-14 0)
(3.60606 -1.58191e-13 0)
(3.60606 -1.58534e-13 0)
(3.60606 -1.7642e-13 0)
(3.60606 -2.08719e-13 0)
(3.60606 -2.34524e-13 0)
(3.60606 1.91333e-14 0)
(3.60606 3.11587e-14 0)
(3.60606 1.10286e-14 0)
(3.60606 -9.80669e-14 0)
(3.60606 -7.45829e-14 0)
(3.60606 -2.82482e-14 0)
(3.60606 -4.0407e-14 0)
(3.60606 -6.31409e-14 0)
(3.60606 -3.73164e-14 0)
(3.60606 5.99804e-14 0)
(3.60606 8.19308e-14 0)
(3.60606 4.2694e-14 0)
(3.60606 3.20189e-14 0)
(3.60606 5.77166e-14 0)
(3.60606 5.65264e-14 0)
(3.60606 3.86533e-14 0)
(3.60606 -3.96235e-14 0)
(3.60606 -2.5051e-14 0)
(3.60606 -5.27224e-14 0)
(3.60606 -6.37243e-14 0)
(3.60606 -4.01769e-14 0)
(3.60606 4.47811e-14 0)
(3.60606 6.24074e-14 0)
(3.60606 1.29876e-13 0)
(3.60606 1.34123e-14 0)
(3.60606 -7.79335e-14 0)
(3.60606 -1.13786e-13 0)
(3.60606 -3.838e-14 0)
(3.60606 3.55461e-14 0)
(3.60606 6.34076e-14 0)
(3.60606 8.11507e-14 0)
(3.60606 3.60629e-14 0)
(3.60606 -6.08105e-15 0)
(3.60606 -4.4121e-14 0)
(3.60606 -7.60398e-14 0)
(3.60606 -8.50113e-14 0)
(3.60606 -1.10936e-13 0)
(3.60606 -1.33656e-13 0)
(3.60606 -1.59514e-13 0)
(3.60606 -2.53673e-13 0)
(3.60606 -2.86316e-14 0)
(3.60606 -3.32624e-14 0)
(3.60606 -5.17356e-14 0)
(3.60606 -7.37894e-14 0)
(3.60606 -6.18607e-14 0)
(3.60606 -1.12646e-13 0)
(3.60606 -1.1696e-13 0)
(3.60606 -8.40945e-14 0)
(3.60606 -5.43827e-14 0)
(3.60606 -6.00004e-14 0)
(3.60606 -5.84934e-14 0)
(3.60606 -7.75234e-14 0)
(3.60606 -9.65567e-14 0)
(3.60606 -2.99652e-14 0)
(3.60606 1.08785e-14 0)
(3.60606 -3.95135e-14 0)
(3.60606 -1.27469e-13 0)
(3.60606 -1.356e-13 0)
(3.60606 -1.19227e-13 0)
(3.60606 -3.58362e-14 0)
(3.60606 1.36557e-14 0)
(3.60606 9.79069e-14 0)
(3.60606 1.20324e-13 0)
(3.60606 1.7551e-13 0)
(3.60606 9.77169e-14 0)
(3.60606 7.19124e-15 0)
(3.60606 -9.80836e-15 0)
(3.60606 3.70364e-14 0)
(3.60606 1.11013e-13 0)
(3.60606 1.52726e-13 0)
(3.60606 1.36784e-13 0)
(3.60606 1.01414e-13 0)
(3.60606 3.97402e-15 0)
(3.60606 -1.08282e-13 0)
(3.60606 -1.9374e-13 0)
(3.60606 -2.00428e-13 0)
(3.60606 -2.01958e-13 0)
(3.60606 -1.71066e-13 0)
(3.60606 -9.83903e-14 0)
(3.60606 -7.96068e-14 0)
(3.60606 -5.70432e-15 0)
(3.60606 -2.3234e-14 0)
(3.60606 -3.81899e-14 0)
(3.60606 2.18704e-15 0)
(3.60606 -2.78515e-14 0)
(3.60606 -7.54164e-14 0)
(3.60606 -1.07799e-13 0)
(3.60606 -8.69417e-14 0)
(3.60606 -7.38928e-14 0)
(3.60606 -1.16363e-13 0)
(3.60606 -1.59974e-13 0)
(3.60606 -1.64365e-13 0)
(3.60606 -1.40311e-13 0)
(3.60606 -1.1574e-13 0)
(3.60606 -5.60163e-14 0)
(3.60606 -2.27406e-14 0)
(3.60606 -6.07505e-14 0)
(3.60606 -1.03014e-13 0)
(3.60606 -8.6915e-14 0)
(3.60606 -2.9205e-14 0)
(3.60606 -1.19887e-14 0)
(3.60606 4.30441e-14 0)
(3.60606 7.91503e-14 0)
(3.60606 1.42731e-13 0)
(3.60606 2.25799e-13 0)
(3.60606 2.10296e-13 0)
(3.60606 1.91443e-13 0)
(3.60606 2.46759e-13 0)
(3.60606 3.18268e-13 0)
(3.60606 2.22165e-13 0)
(3.60606 1.69433e-13 0)
(3.60606 1.60244e-13 0)
(3.60606 1.06335e-13 0)
(3.60606 -3.77765e-14 0)
(3.60606 -3.36158e-14 0)
(3.60606 -1.21088e-14 0)
(3.60606 -3.03952e-14 0)
(3.60606 -6.67215e-14 0)
(3.60606 -1.50063e-13 0)
(3.60606 -1.49654e-13 0)
(3.60606 8.26809e-15 0)
(3.60606 2.97685e-14 0)
(3.60606 5.0062e-14 0)
(3.60606 9.12758e-14 0)
(3.60606 7.98571e-14 0)
(3.60606 8.08973e-14 0)
(3.60606 5.61564e-14 0)
(3.60606 -8.56815e-16 0)
(3.60606 -6.9772e-14 0)
(3.60606 -6.3641e-14 0)
(3.60606 -7.1459e-14 0)
(3.60606 -7.09022e-14 0)
(3.60606 -4.0777e-14 0)
(3.60606 -6.24408e-14 0)
(3.60606 -7.01188e-14 0)
(3.60606 5.86768e-15 0)
(3.60606 5.51129e-14 0)
(3.60606 6.50879e-14 0)
(3.60606 3.22689e-14 0)
(3.60606 1.06185e-14 0)
(3.60606 -6.15806e-14 0)
(3.60606 -4.79516e-14 0)
(3.60606 4.28107e-14 0)
(3.60606 6.80418e-14 0)
(3.60606 5.34926e-14 0)
(3.60606 8.37678e-14 0)
(3.60606 1.23451e-13 0)
(3.60606 1.54257e-13 0)
(3.60606 1.97171e-13 0)
(3.60606 1.80605e-13 0)
(3.60606 1.16874e-13 0)
(3.60606 1.83532e-14 0)
(3.60606 -1.02718e-14 0)
(3.60606 3.28223e-14 0)
(3.60606 5.13789e-14 0)
(3.60606 1.63995e-14 0)
(3.60606 -5.55529e-14 0)
(3.60606 -1.97444e-13 0)
(3.60606 -2.06079e-13 0)
(3.60606 -2.24335e-13 0)
(3.60606 -5.57096e-15 0)
(3.60606 7.29793e-15 0)
(3.60606 3.51327e-14 0)
(3.60606 8.00805e-14 0)
(3.60606 8.76485e-14 0)
(3.60606 7.67633e-14 0)
(3.60606 7.21725e-14 0)
(3.60606 2.77981e-14 0)
(3.60606 1.16653e-14 0)
(3.60606 -1.83665e-14 0)
(3.60606 -2.94017e-14 0)
(3.60606 -4.77016e-14 0)
(3.60606 -6.9642e-14 0)
(3.60606 -6.60047e-14 0)
(3.60606 -7.61598e-14 0)
(3.60606 -8.88954e-14 0)
(3.60606 -4.59979e-14 0)
(3.60606 6.46112e-14 0)
(3.60606 9.54331e-14 0)
(3.60606 2.92951e-14 0)
(3.60606 -1.5636e-15 0)
(3.60606 8.28476e-15 0)
(3.60606 1.39991e-14 0)
(3.60606 -7.42095e-14 0)
(3.60606 -7.01921e-14 0)
(3.60606 5.06521e-14 0)
(3.60606 7.98138e-14 0)
(3.60606 1.10149e-13 0)
(3.60606 8.28676e-14 0)
(3.60606 3.53061e-15 0)
(3.60606 -1.28155e-14 0)
(3.60606 -2.25072e-14 0)
(3.60606 5.71432e-15 0)
(3.60606 3.82166e-14 0)
(3.60606 5.5983e-14 0)
(3.60606 -7.11456e-15 0)
(3.60606 -2.72047e-14 0)
(3.60606 -4.56079e-15 0)
(3.60606 -8.94154e-15 0)
(3.60606 1.34195e-14 0)
(3.60606 3.26723e-16 0)
(3.60606 -5.80434e-15 0)
(3.60606 2.07703e-14 0)
(3.60606 -4.6208e-15 0)
(3.60606 -3.96068e-15 0)
(3.60606 -4.47811e-14 0)
(3.60606 -9.2866e-14 0)
(3.60606 -5.56996e-14 0)
(3.60606 -5.02353e-14 0)
(3.60606 -7.13957e-14 0)
(3.60606 -7.5293e-14 0)
(3.60606 -5.50495e-14 0)
(3.60606 -5.41927e-14 0)
(3.60606 -6.27775e-14 0)
(3.60606 -9.4773e-14 0)
(3.60606 -9.56432e-14 0)
(3.60606 -9.16858e-14 0)
(3.60606 -7.94837e-14 0)
(3.60606 -4.84817e-14 0)
(3.60606 -5.53429e-16 0)
(3.60606 4.95586e-14 0)
(3.60606 5.6223e-14 0)
(3.60606 -9.52498e-15 0)
(3.60606 -7.17357e-14 0)
(3.60606 -8.26576e-14 0)
(3.60606 -1.35923e-14 0)
(3.60606 1.72163e-14 0)
(3.60606 5.2159e-14 0)
(3.60606 2.90283e-14 0)
(3.60606 2.08936e-14 0)
(3.60606 6.81451e-15 0)
(3.60606 1.92633e-14 0)
(3.60606 -4.85584e-14 0)
(3.60606 -6.95287e-14 0)
(3.60606 -8.45679e-14 0)
(3.60606 -1.53637e-13 0)
(3.60606 -7.05422e-14 0)
(3.60606 1.62361e-14 0)
(3.60606 3.78232e-14 0)
(3.60606 7.31123e-14 0)
(3.60606 -1.1362e-14 0)
(3.60606 -6.65448e-15 0)
(3.60606 -8.84826e-28 0)
(3.60606 -1.47892e-14 0)
(3.60606 1.37024e-15 0)
(3.60606 -1.10686e-14 0)
(3.60606 -3.6533e-14 0)
(3.60606 -4.72382e-14 0)
(3.60606 -3.30724e-15 0)
(3.60606 2.1497e-14 0)
(3.60606 5.31658e-14 0)
(3.60606 5.65964e-14 0)
(3.60606 4.22373e-14 0)
(3.60606 -1.53393e-14 0)
(3.60606 -1.23021e-14 0)
(3.60606 1.32356e-15 0)
(3.60606 -1.46125e-14 0)
(3.60606 -6.32376e-14 0)
(3.60606 -1.10606e-13 0)
(3.60606 -6.08838e-14 0)
(3.60606 -4.37075e-14 0)
(3.60606 7.68466e-15 0)
(3.60606 2.62045e-15 0)
(3.60606 9.52831e-15 0)
(3.60606 3.92068e-15 0)
(3.60606 -1.39624e-14 0)
(3.60606 7.66032e-14 0)
(3.60606 7.06722e-14 0)
(3.60606 4.6168e-14 0)
(3.60606 1.63628e-14 0)
(3.60606 -2.16804e-14 0)
(3.60606 -5.13822e-14 0)
(3.60606 -2.141e-13 0)
(3.60606 -2.44822e-13 0)
(3.60606 -2.77531e-13 0)
(3.60606 -1.67952e-13 0)
(3.60606 -1.41678e-13 0)
(3.60606 -1.1387e-13 0)
(3.60606 -1.66095e-14 0)
(3.60606 -5.68611e-14 0)
(3.60606 -8.77485e-15 0)
(3.60606 3.74631e-14 0)
(3.60606 2.83916e-14 0)
(3.60606 2.96118e-14 0)
(3.60606 2.36941e-14 0)
(3.60606 5.15456e-14 0)
(3.60606 5.02687e-14 0)
(3.60606 5.22857e-14 0)
(3.60606 9.36528e-14 0)
(3.60606 9.55498e-14 0)
(3.60606 1.18931e-13 0)
(3.60606 9.43696e-14 0)
(3.60606 8.15141e-14 0)
(3.60606 3.84033e-14 0)
(3.60606 3.13587e-14 0)
(3.60606 1.93867e-14 0)
(3.60606 -2.65613e-14 0)
(3.60606 -2.65646e-14 0)
(3.60606 -1.73263e-14 0)
(3.60606 -5.2369e-14 0)
(3.60606 -1.18277e-13 0)
(3.60606 -1.90313e-13 0)
(3.60606 -1.51196e-13 0)
(3.60606 -1.38857e-14 0)
(3.60606 5.30792e-14 0)
(3.60606 6.96387e-14 0)
(3.60606 4.35375e-14 0)
(3.60606 4.20439e-14 0)
(3.60606 4.89851e-14 0)
(3.60606 9.38495e-15 0)
(3.60606 1.03751e-14 0)
(3.60606 -8.35878e-14 0)
(3.60606 -1.3295e-13 0)
(3.60606 -1.40698e-13 0)
(3.60606 -1.7644e-13 0)
(3.60606 -9.85804e-14 0)
(3.60606 -1.13163e-13 0)
(3.60606 -6.39944e-14 0)
(3.60606 -8.05872e-14 0)
(3.60606 -1.46509e-13 0)
(3.60606 1.09252e-14 0)
(3.60606 6.3711e-15 0)
(3.60606 1.09552e-14 0)
(3.60606 1.58361e-15 0)
(3.60606 -1.17487e-14 0)
(3.60606 2.73014e-14 0)
(3.60606 9.14658e-14 0)
(3.60606 1.09302e-13 0)
(3.60606 1.23031e-13 0)
(3.60606 1.05048e-13 0)
(3.60606 6.51246e-14 0)
(3.60606 3.59829e-14 0)
(3.60606 3.2869e-14 0)
(3.60606 5.09455e-14 0)
(3.60606 -1.20221e-14 0)
(3.60606 -6.02037e-14 0)
(3.60606 -6.13206e-14 0)
(3.60606 -1.26188e-14 0)
(3.60606 1.31389e-14 0)
(3.60606 -3.07786e-14 0)
(3.60606 -7.66232e-14 0)
(3.60606 -1.38741e-13 0)
(3.60606 -2.16131e-13 0)
(3.60606 -1.25372e-13 0)
(3.60606 -5.29925e-14 0)
(3.60606 -2.1057e-14 0)
(3.60606 -8.7115e-14 0)
(3.60606 -1.74984e-13 0)
(3.60606 -7.74267e-14 0)
(3.60606 2.65879e-14 0)
(3.60606 -3.52061e-15 0)
(3.60606 -3.65263e-14 0)
(3.60606 -2.80848e-14 0)
(3.60606 6.56213e-14 0)
(3.60606 8.40478e-14 0)
(3.60606 8.12774e-14 0)
(3.60606 -2.62779e-14 0)
(3.60606 -1.47302e-13 0)
(3.60606 -1.78651e-13 0)
(3.60606 -1.2788e-13 0)
(3.60606 9.68501e-15 0)
(3.60606 -4.27307e-14 0)
(3.60606 -6.16373e-14 0)
(3.60606 -4.30374e-14 0)
(3.60606 -1.49359e-15 0)
(3.60606 8.60482e-15 0)
(3.60606 3.22656e-14 0)
(3.60606 3.92534e-14 0)
(3.60606 5.93936e-14 0)
(3.60606 1.05555e-13 0)
(3.60606 4.01136e-14 0)
(3.60606 7.03121e-15 0)
(3.60606 -9.13391e-14 0)
(3.60606 -8.33511e-14 0)
(3.60606 -7.41728e-14 0)
(3.60606 -6.68349e-14 0)
(3.60606 -4.19839e-14 0)
(3.60606 1.40058e-14 0)
(3.60606 6.36443e-15 0)
(3.60606 -2.76481e-14 0)
(3.60606 -2.23339e-14 0)
(3.60606 -7.09156e-14 0)
(3.60606 -4.54012e-14 0)
(3.60606 -6.01937e-14 0)
(3.60606 -1.69189e-13 0)
(3.60606 -1.38641e-13 0)
(3.60606 -1.21448e-13 0)
(3.60606 -1.05228e-13 0)
(3.60606 -8.40045e-14 0)
(3.60606 6.03771e-15 0)
(3.60606 9.07823e-15 0)
(3.60606 2.39075e-14 0)
(3.60606 7.38628e-14 0)
(3.60606 -1.57594e-14 0)
(3.60606 -2.40642e-14 0)
(3.60606 7.84469e-15 0)
(3.60606 2.3294e-14 0)
(3.60606 -5.61764e-15 0)
(3.60606 -8.98322e-14 0)
(3.60606 -9.46501e-14 0)
(3.60606 4.22073e-15 0)
(3.60606 -2.02368e-15 0)
(3.60606 -3.07386e-14 0)
(3.60606 2.15337e-14 0)
(3.60606 7.46729e-14 0)
(3.60606 3.30524e-14 0)
(3.60606 -1.55694e-14 0)
(3.60606 -2.40708e-14 0)
(3.60606 -3.60262e-14 0)
(3.60606 8.17141e-15 0)
(3.60606 1.54493e-14 0)
(3.60606 2.25572e-14 0)
(3.60606 -1.99134e-14 0)
(3.60606 -8.63182e-14 0)
(3.60606 2.6938e-15 0)
(3.60606 3.45026e-14 0)
(3.60606 5.77866e-14 0)
(3.60606 -2.15971e-14 0)
(3.60606 -3.92068e-14 0)
(3.60606 -6.01704e-14 0)
(3.60606 -7.88069e-14 0)
(3.60606 -1.03068e-13 0)
(3.60606 -7.1409e-14 0)
(3.60606 -1.61131e-13 0)
(3.60606 -1.9559e-13 0)
(3.60606 -2.21472e-13 0)
(3.60606 -1.15227e-13 0)
(3.60606 -2.20705e-15 0)
(3.60606 -2.24872e-14 0)
(3.60606 -5.41594e-14 0)
(3.60606 -9.17158e-14 0)
(3.60606 -9.92705e-14 0)
(3.60606 -1.70386e-13 0)
(3.60606 -2.32217e-13 0)
(3.60606 -2.3075e-13 0)
(3.60606 -1.77457e-13 0)
(3.60606 -8.22675e-14 0)
(3.60606 -4.40809e-14 0)
(3.60606 -6.70682e-14 0)
(3.60606 -1.21123e-13 0)
(3.60606 2.43542e-14 0)
(3.60606 1.53326e-14 0)
(3.60606 3.12021e-14 0)
(3.60606 4.40676e-14 0)
(3.60606 3.32291e-14 0)
(3.60606 1.34056e-14 0)
(3.60606 4.18039e-14 0)
(3.60606 2.97818e-14 0)
(3.60606 5.4076e-15 0)
(3.60606 -1.19354e-14 0)
(3.60606 1.07028e-13 0)
(3.60606 1.09759e-13 0)
(3.60606 1.27409e-13 0)
(3.60606 8.76718e-14 0)
(3.60606 1.42111e-13 0)
(3.60606 1.3678e-13 0)
(3.60606 5.70198e-14 0)
(3.60606 -9.00189e-14 0)
(3.60606 -1.06502e-13 0)
(3.60606 -3.77565e-14 0)
(3.60606 -4.28041e-14 0)
(3.60606 -1.00591e-13 0)
(3.60606 -1.95614e-13 0)
(3.60606 -2.02205e-13 0)
(3.60606 -2.13677e-13 0)
(3.60606 -3.34648e-13 0)
(3.60606 -2.41045e-13 0)
(3.60606 -1.78554e-13 0)
(3.60606 -1.9338e-13 0)
(3.60606 -2.2973e-13 0)
(3.60606 -1.24038e-13 0)
(3.60606 -1.27462e-13 0)
(3.60606 -2.11797e-13 0)
(3.60606 -1.83288e-13 0)
(3.60606 -1.30493e-13 0)
(3.60606 -1.11463e-13 0)
(3.60606 -1.25298e-13 0)
(3.60606 -1.52746e-13 0)
(3.60606 -1.92873e-13 0)
(3.60606 -1.91216e-13 0)
(3.60606 2.03268e-14 0)
(3.60606 4.44177e-14 0)
(3.60606 4.66014e-14 0)
(3.60606 -4.49078e-15 0)
(3.60606 -5.97937e-14 0)
(3.60606 -3.72631e-14 0)
(3.60606 6.17573e-14 0)
(3.60606 1.30249e-13 0)
(3.60606 1.50493e-13 0)
(3.60606 1.19357e-13 0)
(3.60606 8.56581e-14 0)
(3.60606 8.40578e-14 0)
(3.60606 1.77231e-14 0)
(3.60606 2.69547e-14 0)
(3.60606 -2.61612e-14 0)
(3.60606 -2.6798e-14 0)
(3.60606 -1.06352e-15 0)
(3.60606 2.20038e-15 0)
(3.60606 -3.837e-14 0)
(3.60606 -8.54248e-14 0)
(3.60606 -1.08192e-13 0)
(3.60606 -9.84837e-14 0)
(3.60606 -1.98034e-14 0)
(3.60606 1.71163e-14 0)
(3.60606 3.1152e-14 0)
(3.60606 -4.94019e-14 0)
(3.60606 -1.66645e-13 0)
(3.60606 -2.21128e-13 0)
(3.60606 -2.44552e-13 0)
(3.60606 -2.03685e-13 0)
(3.60606 -1.1491e-13 0)
(3.60606 -9.01022e-14 0)
(3.60606 -5.87335e-14 0)
(3.60606 -1.04451e-13 0)
(3.60606 -9.96805e-14 0)
(3.60606 -9.65833e-14 0)
(3.60606 -1.30646e-13 0)
(3.60606 -1.45238e-13 0)
(3.60606 -1.39311e-13 0)
(3.60606 -1.49732e-13 0)
(3.60606 -1.33856e-14 0)
(3.60606 1.29622e-14 0)
(3.60606 -2.30707e-14 0)
(3.60606 -9.75468e-14 0)
(3.60606 -8.31477e-14 0)
(3.60606 -4.11804e-14 0)
(3.60606 -6.13639e-14 0)
(3.60606 -5.15722e-14 0)
(3.60606 -5.72899e-14 0)
(3.60606 -4.39843e-14 0)
(3.60606 -7.04122e-14 0)
(3.60606 -2.2944e-14 0)
(3.60606 -2.03902e-14 0)
(3.60606 1.39624e-14 0)
(3.60606 -4.44977e-14 0)
(3.60606 -9.90171e-16 0)
(3.60606 2.02702e-14 0)
(3.60606 3.74331e-14 0)
(3.60606 -2.51143e-14 0)
(3.60606 -1.59718e-13 0)
(3.60606 -1.9566e-13 0)
(3.60606 -1.5459e-13 0)
(3.60606 -2.62679e-14 0)
(3.60606 3.89901e-14 0)
(3.60606 1.1507e-13 0)
(3.60606 1.21251e-13 0)
(3.60606 -1.82565e-14 0)
(3.60606 -5.52062e-14 0)