/*--------------------------------*- C++ -*----------------------------------*\
| =========                 |                                                 |
| \\      /  F ield         | OpenFOAM: The Open Source CFD Toolbox           |
|  \\    /   O peration     | Version:  2206                                  |
|   \\  /    A nd           | Website:  www.openfoam.com                      |
|    \\/     M anipulation  |                                                 |
\*---------------------------------------------------------------------------*/
FoamFile
{
    version     2.0;
    format      ascii;
    arch        "LSB;label=32;scalar=64";
    class       volScalarField;
    location    "0.08";
    object      p;
}
// * * * * * * * * * * * * * * * * * * * * * * * * * * * * * * * * * * * * * //

dimensions      [1 -1 -2 0 0 0 0];

internalField   nonuniform List<scalar> 
4800
(
1
1
1
1
1
1
1
1
1
1
1
1
1
1
1
1
1
1
1
1
1
1
1
1
1
1
1
1
1
1
1
1
1
1
1
1
1
1
1
1
1
1
1
1
1
1
1
1
1
1
1
1
1
1
1
1
1
1
1
1
1
1
1
1
1
1
1
1
1
1
1
1
1
1
1
1
1
1
1
1
1
1
1
1
1
1
1
1
1
1
1
1
1
1
1
1
1
1
1
1
1
1
1
1
1
1
1
1
1
1
1
1
1
1
1
1
1
1
1
1
1
1
1
1
1
1
1
1
1
1
1
1
1
1
1
1
1
1
1
1
1
1
1
1
1
1
1
1
1
1
1
1
1
1
1
1
1
1
1
1
1
1
1
1
1
1
1
1
1
1
1
1
1
1
1
1
1
1
1
1
1
1
1
1
1
1
1
1
1
1
1
1
1
1
1
1
1
1
1
1
1
1
1
1
1
1
1
1
1
1
1
1
1
1
1
1
1
1
1
1
1
1
1
1
1
1
1
1
1
1
1
1
1
1
1
1
1
1
1
1
1
1
1
1
1
1
1
1
1
1
1
1
1
1
1
1
1
1
1
1
1
1
1
1
1
1
1
1
1
1
1
1
1
1
1
1
1
1
1
1
1
1
1
1
1
1
1
1
1
1
1
1
1
1
1
1
1
1
1
1
1
1
1
1
1
1
1
1
1
1
1
1
1
1
1
1
1
1
1
1
1
1
1
1
1
1
1
1
1
1
1
1
1
1
1
1
1
1
1
1
1
1
1
1
1
1
1
1
1
1
1
1
1
1
1
1
1
1
1
1
1
1
1
1
1
1
1
1
1
1
1
1
1
1
1
1
1
1
1
1
1
1
1
1
1
1
1
1
1
1
1
1
1
1
1
1
1
1
1
1
1
1
1
1
1
1
1
1
1
1
1
1
1
1
1
1
1
1
1
1
1
1
1
1
1
1
1
1
1
1
1
1
1
1
1
1
1
1
1
1
1
1
1
1
1
1
1
1
1
1
1
1
1
1
1
1
1
1
1
1
1
1
1
1
1
1
1
1
1
1
1
1
1
1
1
1
1
1
1
1
1
1
1
1
1
1
1
1
1
1
1
1
1
1
1
1
1
1
1
1
1
1
1
1
1
1
1
1
1
1
1
1
1
1
1
1
1
1
1
1
1
1
1
1
1
1
1
1
1
1
1
1
1
1
1
1
1
1
1
1
1
1
1
1
1
1
1
1
1
1
1
1
1
1
1
1
1
1
1
1
1
1
1
1
1
1
1
1
1
1
1
1
1
1
1
1
1
1
1
1
1
1
1
1
1
1
1
1
1
1
1
1
1
1
1
1
1
1
1
1
1
1
1
1
1
1
1
1
1
1
1
1
1
1
1
1
1
1
1
1
1
1
1
1
1
1
1
1
1
1
1
1
1
1
1
1
1
1
1
1
1
1
1
1
1
1
1
1
1
1
1
1
1
1
1
1
1
1
1
1
1
1
1
1
1
1
1
1
1
1
1
1
1
1
1
1
1
1
1
1
1
1
1
1
1
1
1
1
1
1
1
1
1
1
1
1
1
1
1
1
1
1
1
1
1
1
1
1
1
1
1
1
1
1
1
1
1
1
1
1
1
1
1
1
1
1
1
1
1
1
1
1
1
1
1
1
1
1
1
1
1
1
1
1
1
1
1
1
1
1
1
1
1
1
1
1
1
1
1
1
1
1
1
1
1
1
1
1
1
1
1
1
1
1
1
1
1
1
1
1
1
1
1
1
1
1
1
1
1
1
1
1
1
1
1
1
1
1
1
1
1
1
1
1
1
1
1
1
1
1
1
1
1
1
1
1
1
1
1
1
1
1
1
1
1
1
1
1
1
1
1
1
1
1
1
1
1
1
1
1
1
1
1
1
1
1
1
1
1
1
1
1
1
1
1
1
1
1
1
1
1
1
1
1
1
1
1
1
1
1
1
1
1
1
1
1
1
1
1
1
1
1
1
1
1
1
1
1
1
1
1
1
1
1
1
1
1
1
1
1
1
1
1
1
1
1
1
1
1
1
1
1
1
1
1
1
1
1
1
1
1
1
1
1
1
1
1
1
1
1
1
1
1
1
1
1
1
1
1
1
1
1
1
1
1
1
1
1
1
1
1
1
1
1
1
1
1
1
1
1
1
1
1
1
1
1
1
1
1
1
1
1
1
1
1
1
1
1
1
1
1
1
1
1
1
1
1
1
1
1
1
1
1
1
1
1
1
1
1
1
1
1
1
1
1
1
1
1
1
1
1
1
1
1
1
1
1
1
1
1
1
1
1
1
1
1
1
1
1
1
1
1
1
1
1
1
1
1
1
1
1
1
1
1
1
1
1
1
1
1
1
1
1
1
1
1
1
1
1
1
1
1
1
1
1
1
1
1
1
1
1
1
1
1
1
1
1
1
1
1
1
1
1
1
1
1
1
1
1
1
1
1
1
1
1
1
1
1
1
1
1
1
1
1
1
1
1
1
1
1
1
1
1
1
1
1
1
1
1
1
1
1
1
1
1
1
1
1
1
1
1
1
1
1
1
1
1
1
1
1
1
1
1
1
1
1
1
1
1
1
1
1
1
1
1
1
1
1
1
1
1
1
1
1
1
1
1
1
1
1
1
1
1
1
1
1
1
1
1
1
1
1
1
1
1
1
1
1
1
1
1
1
1
1
1
1
1
1
1
1
1
1
1
1
1
1
1
1
1
1
1
1
1
1
1
1
1
1
1
1
1
1
1
1
1
1
1
1
1
1
1
1
1
1
1
1
1
1
1
1
1
1
1
1
1
1
1
1
1
1
1
1
1
1
1
1
1
1
1
1
1
1
1
1
1
1
1
1
1
1
1
1
1
1
1
1
1
1
1
1
1
1
1
1
1
1
1
1
1
1
1
1
1
1
1
1
1
1
1
1
1
1
1
1
1
1
1
1
1
1
1
1
1
1
1
1
1
1
1
1
1
1
1
1
1
1
1
1
1
1
1
1
1
1
1
1
1
1
1
1
1
1
1
1
1
1
1
1
1
1
1
1
1
1
1
1
1
1
1
1
1
1
1
1
1
1
1
1
1
1
1
1
1
1
1
1
1
1
1
1
1
1
1
1
1
1
1
1
1
1
1
1
1
1
1
1
1
1
1
1
1
1
1
1
1
1
1
1
1
1
1
1
1
1
1
1
1
1
1
1
1
1
1
1
1
1
1
1
1
1
1
1
1
1
1
1
1
1
1
1
1
1
1
1
1
1
1
1
1
1
1
1
1
1
1
1
1
1
1
1
1
1
1
1
1
1
1
1
1
1
1
1
1
1
1
1
1
1
1
1
1
1
1
1
1
1
1
1
1
1
1
1
1
1
1
1
1
1
1
1
1
1
1
1
1
1
1
1
1
1
1
1
1
1
1
1
1
1
1
1
1
1
1
1
1
1
1
1
1
1
1
1
1
1
1
1
1
1
1
1
1
1
1
1
1
1
1
1
1
1
1
1
1
1
1
1
1
1
1
1
1
1
1
1
1
1
1
1
1
1
1
1
1
1
1
1
1
1
1
1
1
1
1
1
1
1
1
1
1
1
1
1
1
1
1
1
1
1
1
1
1.26556
1.6985
2.19251
2.68479
3.27402
3.93385
4.33722
4.68831
5.17245
5.55767
5.57673
5.44929
5.30542
5.07999
4.73316
4.34418
4.08276
3.92929
3.76459
3.70154
3.70581
3.7268
3.78451
3.84602
3.89767
3.92152
3.93926
3.95022
3.94788
3.94793
3.96194
3.98074
3.9851
3.98158
3.96524
3.94332
3.93932
3.9458
3.96297
3.98752
4.00497
4.01237
4.01366
4.01315
4.01082
4.00555
3.99487
3.97525
3.95423
3.94326
3.94292
3.94843
3.96337
3.9906
4.00139
3.99435
3.9761
3.94698
3.90711
3.86421
3.82959
3.80843
3.79691
3.78966
3.78311
3.77302
3.7627
3.75762
3.7527
3.74854
3.74603
3.74535
3.74714
3.74922
3.75067
3.75073
3.74905
3.74851
3.74
3.72845
0.999653
1.0001
1.03237
1.10709
1.193
1.3709
1.6888
2.00967
2.35671
2.8248
3.26161
3.55444
3.84967
3.98872
4.13253
4.30337
4.26133
4.21645
4.18592
4.10157
4.02863
3.96898
3.95362
3.90786
3.87269
3.86736
3.87719
3.89527
3.90976
3.92867
3.9595
3.98055
3.98217
3.97786
3.96715
3.9589
3.95553
3.96098
3.96778
3.97011
3.97207
3.97916
3.98924
3.99676
4.00044
3.99996
3.99445
3.99017
3.98643
3.98086
3.977
3.97758
3.97912
3.97982
3.9765
3.96573
3.94326
3.91087
3.87737
3.84893
3.82016
3.80241
3.79514
3.7915
3.78829
3.7827
3.77304
3.76317
3.754
3.74733
3.74354
3.74211
3.74273
3.74355
3.74429
3.74394
3.74092
3.73761
3.73159
3.72325
1
1
1
0.999999
1
0.99953
1.00257
1.0185
1.06932
1.18585
1.47126
1.90094
2.50818
3.35316
3.92545
4.42732
4.56252
4.51254
4.47354
4.42394
4.33338
4.21549
4.04432
3.91896
3.84699
3.85545
3.87208
3.88454
3.89296
3.90915
3.93726
3.95917
3.96881
3.9693
3.97139
3.97478
3.98333
3.98779
3.98687
3.97708
3.96229
3.95581
3.95608
3.96058
3.97235
3.98756
3.99872
4.00285
4.00453
4.00509
4.004
4.00245
3.99722
3.9843
3.97127
3.95419
3.92541
3.88806
3.85265
3.82682
3.80779
3.79816
3.79577
3.79569
3.79325
3.78775
3.78001
3.77156
3.76332
3.75558
3.74807
3.74369
3.74217
3.74068
3.73878
3.73779
3.73882
3.74043
3.73791
3.73073
1
1
1
1
1
1
1
1
1
0.999786
1.00023
1.01147
1.06708
1.319
1.81149
2.51758
3.25621
3.6841
4.11693
4.17439
4.16296
4.19089
4.20369
4.15917
4.06243
4.03549
4.00856
3.96554
3.89099
3.85758
3.86267
3.88153
3.91098
3.93792
3.96301
3.99392
4.00805
4.00891
4.00502
3.98719
3.9575
3.94286
3.94174
3.94539
3.95307
3.96537
3.98287
4.00082
4.01171
4.01734
4.01915
4.0169
4.00827
3.99406
3.97709
3.95379
3.9225
3.88675
3.85172
3.81993
3.79569
3.78666
3.78435
3.78638
3.78844
3.78818
3.78468
3.77657
3.76858
3.7615
3.75434
3.74785
3.74339
3.73964
3.73526
3.73203
3.73405
3.73895
3.74003
3.73416
1
1
1
1
1
1
1
1
1
1
1
1
1
0.999821
1.00882
1.06276
1.33287
1.8231
2.50122
3.18515
3.67527
4.16054
4.30267
4.29526
4.27537
4.23783
4.17814
4.04248
3.90803
3.86857
3.87182
3.88969
3.91566
3.92818
3.94485
3.97752
3.99552
3.99678
3.99456
3.98511
3.96486
3.96074
3.9628
3.96695
3.96816
3.96554
3.96734
3.97545
3.98683
3.99771
4.00523
4.00816
4.0064
3.99726
3.98089
3.95858
3.93014
3.89683
3.8606
3.82578
3.80057
3.78958
3.78472
3.78019
3.77598
3.77279
3.76946
3.76556
3.76424
3.76304
3.75874
3.75402
3.74847
3.74319
3.73839
3.73339
3.72857
3.72907
3.73571
3.73549
1
1
1
1
1
1
1
1
1
1
1
1
1
1
0.999999
0.999917
1.00019
1.01118
1.07268
1.36599
1.84475
2.49888
3.12143
3.59554
3.96006
4.07437
4.09211
4.06143
4.01688
3.9942
3.99753
3.99766
3.97624
3.9338
3.91237
3.91446
3.92338
3.93367
3.95059
3.96376
3.98287
3.99981
4.00471
4.00258
3.99195
3.97535
3.96318
3.96254
3.96544
3.97055
3.97621
3.98224
3.987
3.98743
3.98071
3.96449
3.93883
3.90548
3.87282
3.84664
3.82721
3.81131
3.79769
3.78452
3.77065
3.76018
3.75293
3.74836
3.74739
3.7535
3.76032
3.75925
3.75256
3.74331
3.73702
3.73002
3.72267
3.72255
3.73064
3.73426
1
1
1
1
1
1
1
1
1
1
1
1
1
1
1
0.999999
0.999999
1
0.999911
1.0008
1.01346
1.08543
1.39046
1.85604
2.51231
3.10394
3.73586
3.97906
4.08835
4.12958
4.12283
4.09856
4.03729
3.92293
3.87891
3.88085
3.89598
3.91695
3.93729
3.96256
3.9859
4.00341
4.01202
4.01034
3.99941
3.97617
3.95901
3.95542
3.95574
3.95734
3.9626
3.96739
3.96863
3.97047
3.96953
3.95941
3.93816
3.9065
3.87711
3.85501
3.83817
3.823
3.80355
3.7831
3.76906
3.75832
3.75064
3.74484
3.74159
3.74221
3.74992
3.75579
3.75408
3.7485
3.74272
3.73498
3.72687
3.7211
3.72344
3.72891
1
1
1
1
1
1
1
1
1
1
1
1
1
1
1
1
1
1
0.999999
0.999997
1
0.999928
1.00163
1.01459
1.11999
1.42779
1.92464
2.59372
3.18065
3.70829
3.90498
3.9647
3.94531
3.93157
3.91934
3.93161
3.94823
3.94754
3.94679
3.94456
3.95007
3.96633
3.98081
3.98632
3.98899
3.99496
3.99588
3.99026
3.98261
3.9755
3.9736
3.97295
3.96935
3.96106
3.95435
3.94269
3.9219
3.89102
3.86139
3.84668
3.83295
3.81627
3.80123
3.79392
3.78853
3.77539
3.75316
3.74037
3.73588
3.7328
3.73485
3.7448
3.75077
3.75013
3.74618
3.73826
3.72966
3.72593
3.72684
3.72979
1
1
1
1
1
1
1
1
1
1
1
1
1
1
1
1
1
1
1
1
1
0.999998
0.999999
0.999986
1.00001
1.00255
1.02246
1.18367
1.50274
2.08352
2.73114
3.37604
3.79816
3.91697
4.02592
4.0312
4.0167
3.98707
3.91754
3.88715
3.89183
3.9155
3.93855
3.95028
3.96799
3.98786
4.0052
4.01652
4.01766
4.01487
4.01192
4.00604
3.98958
3.96572
3.94766
3.92948
3.9051
3.87342
3.83638
3.80802
3.79383
3.78747
3.7867
3.79012
3.78867
3.78454
3.77606
3.75831
3.7393
3.73223
3.72915
3.73281
3.74202
3.75004
3.7517
3.74204
3.73088
3.72555
3.72564
3.72776
1
1
1
1
1
1
1
1
1
1
1
1
1
1
1
1
1
1
1
1
1
1
1
1
0.999999
1
0.999971
1.00037
1.00481
1.04801
1.25963
1.61958
2.26437
2.86166
3.54722
3.789
3.87036
3.91287
3.90482
3.89382
3.90781
3.93278
3.93675
3.93596
3.93638
3.94428
3.96571
3.99489
4.01383
4.02334
4.02986
4.0324
4.02655
4.00491
3.9759
3.94626
3.91471
3.87919
3.83704
3.79106
3.76331
3.75592
3.75448
3.75874
3.77495
3.78842
3.7885
3.77997
3.76234
3.7428
3.73377
3.72829
3.73256
3.74546
3.75005
3.74195
3.72974
3.72201
3.72177
3.72728
1
1
1
1
1
1
1
1
1
1
1
1
1
1
1
1
1
1
1
1
1
1
1
1
1
1
0.999999
0.999998
1
0.999978
1.00115
1.00935
1.09502
1.35107
1.84397
2.5175
3.141
3.71687
3.84883
3.95556
3.98656
3.98528
3.96043
3.93668
3.91408
3.90526
3.90766
3.92505
3.95391
3.98255
4.00722
4.02116
4.02205
4.01222
3.98917
3.96258
3.93925
3.91314
3.87649
3.82278
3.76817
3.74697
3.74311
3.74307
3.7496
3.76922
3.78392
3.78234
3.77214
3.75497
3.74094
3.73299
3.727
3.73174
3.74305
3.74164
3.73048
3.72111
3.71943
3.72688
1
1
1
1
1
1
1
1
1
1
1
1
1
1
1
1
1
1
1
1
1
1
1
1
1
1
1
1
1
0.999999
1
0.999988
1.00012
1.0029
1.02557
1.20448
1.54384
2.14522
2.78982
3.40957
3.8603
3.9112
3.91294
3.96109
3.95552
3.93112
3.91635
3.90955
3.91228
3.92855
3.94807
3.96099
3.97302
3.9736
3.96483
3.95202
3.9383
3.92208
3.89991
3.8719
3.83033
3.77653
3.74044
3.73309
3.73368
3.73879
3.75743
3.77979
3.77732
3.7613
3.74378
3.73441
3.72743
3.72837
3.73993
3.74221
3.73063
3.72003
3.71576
3.72416
1
1
1
1
1
1
1
1
1
1
1
1
1
1
1
1
1
1
1
1
1
1
1
1
1
1
1
1
1
1
1
0.999999
0.999999
1
0.999981
1.0011
1.00949
1.07515
1.35777
1.83225
2.54083
3.13752
3.65346
3.90225
3.97811
3.99742
4.00315
3.98737
3.96474
3.94693
3.93741
3.93423
3.93179
3.92844
3.91762
3.89473
3.88483
3.8853
3.88484
3.87247
3.8506
3.82646
3.78854
3.74421
3.72806
3.72633
3.73393
3.75922
3.77246
3.76201
3.74432
3.73311
3.72485
3.72261
3.73392
3.74066
3.72852
3.71726
3.71277
3.72078
1
1
1
1
1
1
1
1
1
1
1
1
1
1
1
1
1
1
1
1
1
1
1
1
1
1
1
1
1
1
1
1
1
1
0.999999
1
0.99999
1.00012
1.00427
1.02954
1.21355
1.63866
2.27971
2.91708
3.48279
3.85748
3.95198
3.97817
4.02296
4.03296
4.02185
3.99974
3.97325
3.94642
3.91639
3.88233
3.84543
3.81932
3.81217
3.82203
3.84369
3.84012
3.82719
3.79211
3.7421
3.72463
3.72051
3.73058
3.7595
3.76424
3.74998
3.73471
3.72509
3.71884
3.7252
3.73616
3.72813
3.71801
3.71308
3.71706
1
1
1
1
1
1
1
1
1
1
1
1
1
1
1
1
1
1
1
1
1
1
1
1
1
1
1
1
1
1
1
1
1
1
1
1
0.999999
0.999999
1
0.999995
1.00177
1.01759
1.11604
1.50804
2.1423
2.82686
3.31431
3.71569
3.95109
4.00141
4.01289
4.02993
4.04151
4.03339
4.00703
3.95994
3.87559
3.80632
3.78394
3.77473
3.78334
3.81904
3.82094
3.80618
3.76895
3.72863
3.71614
3.7147
3.73617
3.76022
3.7536
3.73627
3.72452
3.71818
3.72124
3.73527
3.7361
3.72738
3.71485
3.71418
1
1
1
1
1
1
1
1
1
1
1
1
1
1
1
1
1
1
1
1
1
1
1
1
1
1
1
1
1
1
1
1
1
1
1
1
1
1
1
0.999999
1
0.999993
1.00058
1.01295
1.07803
1.40149
2.01956
2.75538
3.27346
3.61948
3.82669
3.93608
3.999
4.03619
4.04121
4.02717
3.98012
3.89531
3.78416
3.7412
3.73555
3.75096
3.80138
3.81328
3.79419
3.75082
3.71894
3.70973
3.71555
3.74371
3.75311
3.73994
3.72467
3.71794
3.71588
3.72278
3.73384
3.73273
3.72297
3.71621
1
1
1
1
1
1
1
1
1
1
1
1
1
1
1
1
1
1
1
1
1
1
1
1
1
1
1
1
1
1
1
1
1
1
1
1
1
1
1
1
1
0.999999
1
0.999995
1.00024
1.00927
1.06508
1.30338
1.908
2.77012
3.36621
3.58673
3.71752
3.85669
3.97783
4.00889
4.00672
3.97591
3.87438
3.74997
3.7168
3.71693
3.75501
3.80235
3.80174
3.77398
3.72634
3.70527
3.70398
3.7272
3.75749
3.75332
3.73317
3.71247
3.70739
3.70939
3.72327
3.73351
3.73282
3.72576
1
1
1
1
1
1
1
1
1
1
1
1
1
1
1
1
1
1
1
1
1
1
1
1
1
1
1
1
1
1
1
1
1
1
1
1
1
1
1
1
1
1
1
0.999999
0.999999
0.999996
1.00017
1.00544
1.05811
1.29895
1.90808
2.82545
3.44719
3.59946
3.70185
3.86897
3.97797
3.96614
3.92917
3.82807
3.72038
3.70118
3.70866
3.76274
3.79777
3.78636
3.74476
3.70344
3.69618
3.70831
3.74312
3.75834
3.7478
3.71883
3.698
3.69598
3.7054
3.72792
3.73965
3.73802
1
1
1
1
1
1
1
1
1
1
1
1
1
1
1
1
1
1
1
1
1
1
1
1
1
1
1
1
1
1
1
1
1
1
1
1
1
1
1
1
1
1
1
1
1
0.999999
0.999999
0.999995
1.00018
1.00579
1.0619
1.32927
1.99745
2.89872
3.37886
3.58751
3.78393
3.92479
3.92095
3.89353
3.79343
3.68863
3.6759
3.70742
3.78087
3.79828
3.7758
3.72176
3.69242
3.69238
3.71628
3.75359
3.76014
3.7455
3.70908
3.68894
3.68988
3.70723
3.7355
3.74154
1
1
1
1
1
1
1
1
1
1
1
1
1
1
1
1
1
1
1
1
1
1
1
1
1
1
1
1
1
1
1
1
1
1
1
1
1
1
1
1
1
1
1
1
1
1
1
0.999999
0.999999
0.999996
1.00025
1.00757
1.07261
1.39199
2.12372
2.8778
3.34219
3.68296
3.8834
3.88502
3.84965
3.73101
3.66126
3.67217
3.73924
3.79394
3.79243
3.76266
3.69977
3.67471
3.68165
3.72593
3.75577
3.75459
3.73954
3.69938
3.682
3.68645
3.71322
3.73841
1
1
1
1
1
1
1
1
1
1
1
1
1
1
1
1
1
1
1
1
1
1
1
1
1
1
1
1
1
1
1
1
1
1
1
1
1
1
1
1
1
1
1
1
1
1
1
1
1
0.999999
1
0.999997
1.00043
1.01082
1.10095
1.49802
2.22439
2.88718
3.40502
3.77094
3.82003
3.78072
3.68314
3.64525
3.67434
3.7599
3.8011
3.79651
3.75634
3.68268
3.66412
3.67303
3.71944
3.75173
3.74661
3.73035
3.69566
3.68295
3.68902
3.72064
1
1
1
1
1
1
1
1
1
1
1
1
1
1
1
1
1
1
1
1
1
1
1
1
1
1
1
1
1
1
1
1
1
1
1
1
1
1
1
1
1
1
1
1
1
1
1
1
1
1
1
1
0.999999
1
1.001
1.01796
1.1455
1.59558
2.2826
2.96497
3.5506
3.73262
3.71149
3.60578
3.57829
3.64321
3.76742
3.79972
3.79673
3.75757
3.6734
3.64786
3.65508
3.69727
3.74226
3.74695
3.73764
3.70508
3.68851
3.6976
1
1
1
1
1
1
1
1
1
1
1
1
1
1
1
1
1
1
1
1
1
1
1
1
1
1
1
1
1
1
1
1
1
1
1
1
1
1
1
1
1
1
1
1
1
1
1
1
1
1
1
1
1
1
0.999999
1.00003
1.00196
1.027
1.20173
1.64977
2.34617
3.0766
3.58839
3.63924
3.56551
3.54631
3.61682
3.75996
3.79193
3.78501
3.74941
3.66684
3.63429
3.64271
3.69127
3.74127
3.74794
3.74395
3.71302
3.69045
1
1
1
1
1
1
1
1
1
1
1
1
1
1
1
1
1
1
1
1
1
1
1
1
1
1
1
1
1
1
1
1
1
1
1
1
1
1
1
1
1
1
1
1
1
1
1
1
1
1
1
1
1
1
1
1
0.999998
1.00009
1.00342
1.03711
1.23777
1.70765
2.41972
3.15633
3.54987
3.53146
3.52636
3.56724
3.69994
3.76982
3.77092
3.74933
3.68132
3.63727
3.64169
3.6799
3.73553
3.74513
3.74187
3.71098
1
1
1
1
1
1
1
1
1
1
1
1
1
1
1
1
1
1
1
1
1
1
1
1
1
1
1
1
1
1
1
1
1
1
1
1
1
1
1
1
1
1
1
1
1
1
1
1
1
1
1
1
1
1
1
1
1
1
0.999998
1.00018
1.0046
1.04969
1.25897
1.74712
2.49726
3.24725
3.48693
3.46519
3.50377
3.63012
3.75022
3.76327
3.75976
3.71373
3.64702
3.64013
3.65935
3.71505
3.74027
3.73197
1
1
1
1
1
1
1
1
1
1
1
1
1
1
1
1
1
1
1
1
1
1
1
1
1
1
1
1
1
1
1
1
1
1
1
1
1
1
1
1
1
1
1
1
1
1
1
1
1
1
1
1
1
1
1
1
1
1
1
1
0.999999
1.00031
1.00543
1.06
1.28898
1.83009
2.56678
3.2526
3.38325
3.44863
3.55744
3.71898
3.75597
3.7619
3.73207
3.64791
3.62605
3.64487
3.70879
3.74119
1
1
1
1
1
1
1
1
1
1
1
1
1
1
1
1
1
1
1
1
1
1
1
1
1
1
1
1
1
1
1
1
1
1
1
1
1
1
1
1
1
1
1
1
1
1
1
1
1
1
1
1
1
1
1
1
1
1
1
1
1
1
1
1.00045
1.00744
1.07431
1.3133
1.8857
2.69216
3.23434
3.36926
3.4757
3.65274
3.74802
3.75365
3.73149
3.64833
3.61892
3.64409
3.71897
1
1
1
1
1
1
1
1
1
1
1
1
1
1
1
1
1
1
1
1
1
1
1
1
1
1
1
1
1
1
1
1
1
1
1
1
1
1
1
1
1
1
1
1
1
1
1
1
1
1
1
1
1
1
1
1
1
1
1
1
1
1
1
1
1.00001
1.00065
1.00966
1.09238
1.39494
2.02919
2.85507
3.22885
3.38303
3.56476
3.7262
3.73996
3.72916
3.65121
3.62342
3.65868
1
1
1
1
1
1
1
1
1
1
1
1
1
1
1
1
1
1
1
1
1
1
1
1
1
1
1
1
1
1
1
1
1
1
1
1
1
1
1
1
1
1
1
1
1
1
1
1
1
1
1
1
1
1
1
1
1
1
1
1
1
1
1
1
1
0.999999
1.00002
1.00113
1.01733
1.13267
1.50563
2.23893
2.91177
3.22478
3.4774
3.70375
3.72663
3.73168
3.65862
3.62737
1
1
1
1
1
1
1
1
1
1
1
1
1
1
1
1
1
1
1
1
1
1
1
1
1
1
1
1
1
1
1
1
1
1
1
1
1
1
1
1
1
1
1
1
1
1
1
1
1
1
1
1
1
1
1
1
1
1
1
1
1
1
1
1
1
1
1
0.999999
1.00006
1.0022
1.02973
1.1841
1.67026
2.42741
2.96394
3.33088
3.64783
3.7208
3.72172
3.66363
1
1
1
1
1
1
1
1
1
1
1
1
1
1
1
1
1
1
1
1
1
1
1
1
1
1
1
1
1
1
1
1
1
1
1
1
1
1
1
1
1
1
1
1
1
1
1
1
1
1
1
1
1
1
1
1
1
1
1
1
1
1
1
1
1
1
1
1
1
1
1.00016
1.00439
1.05389
1.27991
1.89412
2.60634
3.1242
3.5164
3.69612
3.68171
1
1
1
1
1
1
1
1
1
1
1
1
1
1
1
1
1
1
1
1
1
1
1
1
1
1
1
1
1
1
1
1
1
1
1
1
1
1
1
1
1
1
1
1
1
1
1
1
1
1
1
1
1
1
1
1
1
1
1
1
1
1
1
1
1
1
1
1
1
1
1
1
1.00052
1.0108
1.09595
1.45573
2.17942
2.84575
3.31726
3.603
1
1
1
1
1
1
1
1
1
1
1
1
1
1
1
1
1
1
1
1
1
1
1
1
1
1
1
1
1
1
1
1
1
1
1
1
1
1
1
1
1
1
1
1
1
1
1
1
1
1
1
1
1
1
1
1
1
1
1
1
1
1
1
1
1
1
1
1
1
1
1
1
0.999999
1.00003
1.00151
1.0285
1.18534
1.69862
2.4463
3.26387
1
1
1
1
1
1
1
1
1
1
1
1
1
1
1
1
1
1
1
1
1
1
1
1
1
1
1
1
1
1
1
1
1
1
1
1
1
1
1
1
1
1
1
1
1
1
1
1
1
1
1
1
1
1
1
1
1
1
1
1
1
1
1
1
1
1
1
1
1
1
1
1
1
1
1
1.00021
1.00496
1.06758
1.32973
2.38763
1
1
1
1
1
1
1
1
1
1
1
1
1
1
1
1
1
1
1
1
1
1
1
1
1
1
1
1
1
1
1
1
1
1
1
1
1
1
1
1
1
1
1
1
1
1
1
1
1
1
1
1
1
1
1
1
1
1
1
1
1
1
1
1
1
1
1
1
1
1
1
1
1
1
1
1
1.00001
1.00102
1.01539
1.43699
1
1
1
1
1
1
1
1
1
1
1
1
1
1
1
1
1
1
1
1
1
1
1
1
1
1
1
1
1
1
1
1
1
1
1
1
1
1
1
1
1
1
1
1
1
1
1
1
1
1
1
1
1
1
1
1
1
1
1
1
1
1
1
1
1
1
1
1
1
1
1
1
1
1
1
1
1
1
1.00017
1.05069
1
1
1
1
1
1
1
1
1
1
1
1
1
1
1
1
1
1
1
1
1
1
1
1
1
1
1
1
1
1
1
1
1
1
1
1
1
1
1
1
1
1
1
1
1
1
1
1
1
1
1
1
1
1
1
1
1
1
1
1
1
1
1
1
1
1
1
1
1
1
1
1
1
1
1
1
1
1
1
1.00174
1
1
1
1
1
1
1
1
1
1
1
1
1
1
1
1
1
1
1
1
1
1
1
1
1
1
1
1
1
1
1
1
1
1
1
1
1
1
1
1
1
1
1
1
1
1
1
1
1
1
1
1
1
1
1
1
1
1
1
1
1
1
1
1
1
1
1
1
1
1
1
1
1
1
1
1
1
1
1
1.00001
1
1
1
1
1
1
1
1
1
1
1
1
1
1
1
1
1
1
1
1
1
1
1
1
1
1
1
1
1
1
1
1
1
1
1
1
1
1
1
1
1
1
1
1
1
1
1
1
1
1
1
1
1
1
1
1
1
1
1
1
1
1
1
1
1
1
1
1
1
1
1
1
1
1
1
1
1
1
1
1
1
1
1
1
1
1
1
1
1
1
1
1
1
1
1
1
1
1
1
1
1
1
1
1
1
1
1
1
1
1
1
1
1
1
1
1
1
1
1
1
1
1
1
1
1
1
1
1
1
1
1
1
1
1
1
1
1
1
1
1
1
1
1
1
1
1
1
1
1
1
1
1
1
1
1
1
1
1
1
1
)
;

boundaryField
{
    inlet
    {
        type            fixedValue;
        value           uniform 1;
    }
    outlet
    {
        type            zeroGradient;
    }
    bottom
    {
        type            symmetryPlane;
    }
    top
    {
        type            symmetryPlane;
    }
    obstacle
    {
        type            zeroGradient;
    }
    defaultFaces
    {
        type            empty;
    }
}


// ************************************************************************* //
