/*--------------------------------*- C++ -*----------------------------------*\
| =========                 |                                                 |
| \\      /  F ield         | OpenFOAM: The Open Source CFD Toolbox           |
|  \\    /   O peration     | Version:  2206                                  |
|   \\  /    A nd           | Website:  www.openfoam.com                      |
|    \\/     M anipulation  |                                                 |
\*---------------------------------------------------------------------------*/
FoamFile
{
    version     2.0;
    format      ascii;
    arch        "LSB;label=32;scalar=64";
    class       volScalarField;
    location    "0.14";
    object      T;
}
// * * * * * * * * * * * * * * * * * * * * * * * * * * * * * * * * * * * * * //

dimensions      [0 0 0 1 0 0 0];

internalField   nonuniform List<scalar> 
4800
(
1
1
1
1
1
1
1
1
1
1
1
1
1
1
1
1
1
1
1
1
1
1
1
1
1
1
1
1
1
1
1
1
1
1
1
1
1
1
1
1
1
1
1
1
1
1
1
1
1
1
1
1
1
1
1
1
1
1
1
1
1
1
1
1
1
1
1
1
1
1
1
1
1
1
1
1
1
1
1
1
1
1
1
1
1
1
1
1
1
1
1
1
1
1
1
1
1
1
1
1
1
1
1
1
1
1
1
1
1
1
1
1
1
1
1
1
1
1
1
1
1
1
1
1
1
1
1
1
1
1
1
1
1
1
1
1
1
1
1
1
1
1
1
1
1
1
1
1
1
1
1
1
1
1
1
1
1
1
1
1
1
1
1
1
1
1
1
1
1
1
1
1
1
1
1
1
1
1
1
1
1
1
1
1
1
1
1
1
1
1
1
1
1
1
1
1
1
1
1
1
1
1
1
1
1
1
1
1
1
1
1
1
1
1
1
1
1
1
1
1
1
1
1
1
1
1
1
1
1
1
1
1
1
1
1
1
1
1
1
1
1
1
1
1
1
1
1
1
1
1
1
1
1
1
1
1
1
1
1
1
1
1
1
1
1
1
1
1
1
1
1
1
1
1
1
1
1
1
1
1
1
1
1
1
1
1
1
1
1
1
1
1
1
1
1
1
1
1
1
1
1
1
1
1
1
1
1
1
1
1
1
1
1
1
1
1
1
1
1
1
1
1
1
1
1
1
1
1
1
1
1
1
1
1
1
1
1
1
1
1
1
1
1
1
1
1
1
1
1
1
1
1
1
1
1
1
1
1
1
1
1
1
1
1
1
1
1
1
1
1
1
1
1
1
1
1
1
1
1
1
1
1
1
1
1
1
1
1
1
1
1
1
1
1
1
1
1
1
1
1
1
1
1
1
1
1
1
1
1
1
1
1
1
1
1
1
1
1
1
1
1
1
1
1
1
1
1
1
1
1
1
1
1
1
1
1
1
1
1
1
1
1
1
1
1
1
1
1
1
1
1
1
1
1
1
1
1
1
1
1
1
1
1
1
1
1
1
1
1
1
1
1
1
1
1
1
1
1
1
1
1
1
1
1
1
1
1
1
1
1
1
1
1
1
1
1
1
1
1
1
1
1
1
1
1
1
1
1
1
1
1
1
1
1
1
1
1
1
1
1
1
1
1
1
1
1
1
1
1
1
1
1
1
1
1
1
1
1
1
1
1
1
1
1
1
1
1
1
1
1
1
1
1
1
1
1
1
1
1
1
1
1
1
1
1
1
1
1
1
1
1
1
1
1
1
1
1
1
1
1
1
1
1
1
1
1
1
1
1
1
1
1
1
1
1
1
1
1
1
1
1
1
1
1
1
1
1
1
1
1
1
1
1
1
1
1
1
1
1
1
1
1
1
1
1
1
1
1
1
1
1
1
1
1
1
1
1
1
1
1
1
1
1
1
1
1
1
1
1
1
1
1
1
1
1
1
1
1
1
1
1
1
1
1
1
1
1
1
1
1
1
1
1
1
1
1
1
1
1
1
1
1
1
1
1
1
1
1
1
1
1
1
1
1
1
1
1
1
1
1
1
1
1
1
1
1
1
1
1
1
1
1
1
1
1
1
1
1
1
1
1
1
1
1
1
1
1
1
1
1
1
1
1
1
1
1
1
1
1
1
1
1
1
1
1
1
1
1
1
1
1
1
1
1
1
1
1
1
1
1
1
1
1
1
1
1
1
1
1
1
1
1
1
1
1
1
1
1
1
1
1
1
1
1
1
1
1
1
1
1
1
1
1
1
1
1
1
1
1
1
1
1
1
1
1
1
1
1
1
1
1
1
1
1
1
1
1
1
1
1
1
1
1
1
1
1
1
1
1
1
1
1
1
1
1
1
1
1
1
1
1
1
1
1
1
1
1
1
1
1
1
1
1
1
1
1
1
1
1
1
1
1
1
1
1
1
1
1
1
1
1
1
1
1
1
1
1
1
1
1
1
1
1
1
1
1
1
1
1
1
1
1
1
1
1
1
1
1
1
1
1
1
1
1
1
1
1
1
1
1
1
1
1
1
1
1
1
1
1
1
1
1
1
1
1
1
1
1
1
1
1
1
1
1
1
1
1
1
1
1
1
1
1
1
1
1
1
1
1
1
1
1
1
1
1
1
1
1
1
1
1
1
1
1
1
1
1
1
1
1
1
1
1
1
1
1
1
1
1
1
1
1
1
1
1
1
1
1
1
1
1
1
1
1
1
1
1
1
1
1
1
1
1
1
1
1
1
1
1
1
1
1
1
1
1
1
1
1
1
1
1
1
1
1
1
1
1
1
1
1
1
1
1
1
1
1
1
1
1
1
1
1
1
1
1
1
1
1
1
1
1
1
1
1
1
1
1
1
1
1
1
1
1
1
1
1
1
1
1
1
1
1
1
1
1
1
1
1
1
1
1
1
1
1
1
1
1
1
1
1
1
1
1
1
1
1
1
1
1
1
1
1
1
1
1
1
1
1
1
1
1
1
1
1
1
1
1
1
1
1
1
1
1
1
1
1
1
1
1
1
1
1
1
1
1
1
1
1
1
1
1
1
1
1
1
1
1
1
1
1
1
1
1
1
1
1
1
1
1
1
1
1
1
1
1
1
1
1
1
1
1
1
1
1
1
1
1
1
1
1
1
1
1
1
1
1
1
1
1
1
1
1
1
1
1
1
1
1
1
1
1
1
1
1
1
1
1
1
1
1
1
1
1
1
1
1
1
1
1
1
1
1
1
1
1
1
1
1
1
1
1
1
1
1
1
1
1
1
1
1
1
1
1
1
1
1
1
1
1
1
1
1
1
1
1
1
1
1
1
1
1
1
1
1
1
1
1
1
1
1
1
1
1
1
1
1
1
1
1
1
1
1
1
1
1
1
1
1
1
1
1
1
1
1
1
1
1
1
1
1
1
1
1
1
1
1
1
1
1
1
1
1
1
1
1
1
1
1
1
1
1
1
1
1
1
1
1
1
1
1
1
1
1
1
1
1
1
1
1
1
1
1
1
1
1
1
1
1
1
1
1
1
1
1
1
1
1
1
1
1
1
1
1
1
1
1
1
1
1
1
1
1
1
1
1
1
1
1
1
1
1
1
1
1
1
1
1
1
1
1
1
1
1
1
1
1
1
1
1
1
1
1
1
1
1
1
1
1
1
1
1
1
1
1
1
1
1
1
1
1
1
1
1
1
1
1
1
1
1
1
1
1
1
1
1
1
1
1
1
1
1
1
1
1
1
1
1
1
1
1
1
1
1
1
1
1
1
1
1
1
1
1
1
1
1
1
1
1
1
1
1
1
1
1
1
1
1
1
1
1
1
1
1
1
1
1
1
1
1
1
1
1
1
1
1
1
1
1
1
1
1
1
1
1
1
1
1
1
1
1
1
1
1
1
1
1
1
1
1
1
1
1
1
1
1
1
1
1
1
1
1
1
1
1
1
1
1
1
1
1
1
1
1
1
1
1
1
1
1
1
1
1
1
1
1
1
1
1
1
1
1
1
1
1
1
1
1
1
1
1
1
1
1
1
1
1
1
1
1
1
1
1
1
1
1
1
1
1
1
1
1
1
1
1
1
1
1
1
1
1
1.0722
1.16609
1.26862
1.35368
1.42832
1.51484
1.57436
1.62591
1.67533
1.69013
1.68911
1.68229
1.6649
1.63194
1.5874
1.54639
1.53368
1.52963
1.52035
1.51647
1.51817
1.52425
1.53236
1.54008
1.54281
1.54315
1.54329
1.54399
1.54687
1.54814
1.54771
1.54709
1.54761
1.54964
1.55213
1.55378
1.55398
1.55345
1.55248
1.55151
1.55077
1.55044
1.55055
1.55065
1.5507
1.55095
1.55141
1.55186
1.55224
1.55246
1.55268
1.55312
1.55401
1.55518
1.55617
1.55653
1.55652
1.5564
1.55608
1.55565
1.55545
1.55554
1.55571
1.55572
1.55572
1.5557
1.55559
1.5553
1.55507
1.55508
1.55522
1.55538
1.55564
1.55607
1.55649
1.55683
1.55704
1.5572
1.55732
1.55755
1.00036
1.00268
1.00977
1.04591
1.08865
1.1413
1.22282
1.28303
1.35113
1.40279
1.44922
1.48958
1.51316
1.54009
1.56352
1.56774
1.56983
1.57472
1.57254
1.56209
1.55178
1.54857
1.54555
1.54341
1.54296
1.54387
1.54448
1.54652
1.54947
1.55148
1.55141
1.55068
1.5504
1.5507
1.5516
1.5527
1.55356
1.55377
1.55383
1.55398
1.55402
1.5544
1.55479
1.55498
1.55507
1.55519
1.55526
1.55523
1.55499
1.55453
1.5542
1.55417
1.55453
1.55517
1.55587
1.55631
1.55634
1.55626
1.55619
1.55621
1.55632
1.55656
1.55688
1.5572
1.55737
1.55747
1.55748
1.55738
1.5572
1.55719
1.55727
1.55734
1.5574
1.55743
1.55749
1.55748
1.55743
1.55736
1.55729
1.55742
1
1
0.999993
1
0.999967
1.0003
1.00377
1.0141
1.04535
1.11087
1.19425
1.31934
1.44299
1.55153
1.59248
1.62087
1.62673
1.6238
1.61849
1.60494
1.5877
1.56316
1.55489
1.55399
1.5538
1.55412
1.55756
1.56052
1.56107
1.56089
1.56077
1.56056
1.55953
1.55874
1.55899
1.55926
1.5593
1.55951
1.55958
1.55965
1.55998
1.56069
1.56169
1.56228
1.56238
1.56243
1.5624
1.56219
1.56169
1.56098
1.56028
1.55973
1.55947
1.55954
1.55954
1.55943
1.55914
1.55865
1.55847
1.55845
1.55856
1.55892
1.5595
1.5602
1.56069
1.56085
1.56091
1.56079
1.56047
1.5604
1.56041
1.56043
1.56042
1.56034
1.5602
1.55997
1.5597
1.55931
1.55898
1.55895
1
1
1
1
1
1
0.999997
1
0.999977
1.00012
1.00188
1.01966
1.09013
1.22212
1.37329
1.47398
1.57018
1.58725
1.59725
1.59382
1.5846
1.58647
1.58947
1.58886
1.58572
1.57993
1.57724
1.57376
1.5705
1.56889
1.56964
1.57038
1.57109
1.57135
1.57177
1.57134
1.57083
1.57054
1.5697
1.56842
1.56802
1.56803
1.56826
1.56901
1.57004
1.57104
1.57148
1.57145
1.57097
1.56993
1.56901
1.56839
1.56814
1.56794
1.56748
1.56682
1.56602
1.56522
1.56487
1.5647
1.56447
1.56427
1.56419
1.56429
1.56451
1.56465
1.56467
1.56472
1.56476
1.56476
1.56482
1.56492
1.56493
1.56477
1.56447
1.56408
1.56357
1.56302
1.56258
1.5622
1
1
1
1
1
1
1
1
1
1
0.999997
1.00001
1.00002
1.00193
1.02792
1.09619
1.22779
1.38419
1.48887
1.57992
1.59932
1.6157
1.61862
1.61594
1.61128
1.60236
1.58485
1.57244
1.57282
1.57664
1.57906
1.57979
1.57989
1.57978
1.57987
1.58023
1.58088
1.58081
1.57991
1.57841
1.57756
1.57678
1.57612
1.5761
1.57656
1.57697
1.57686
1.57654
1.5762
1.57593
1.57594
1.57614
1.57665
1.57683
1.57666
1.57601
1.57504
1.5742
1.5735
1.57299
1.5725
1.572
1.57164
1.57139
1.57107
1.5707
1.57035
1.57005
1.5698
1.56951
1.56933
1.56929
1.56929
1.56926
1.56906
1.56873
1.56826
1.56774
1.56729
1.56675
1
1
1
1
1
1
1
1
1
1
1
1
1
1
0.99999
1.00009
1.00281
1.03834
1.11418
1.25089
1.39147
1.49287
1.57526
1.5808
1.5879
1.59104
1.58608
1.58148
1.58294
1.58711
1.5866
1.58575
1.58385
1.58177
1.58037
1.58158
1.58352
1.58423
1.5847
1.58543
1.58533
1.58435
1.58294
1.5823
1.58192
1.58139
1.58085
1.58017
1.57929
1.57896
1.57907
1.57976
1.5808
1.58131
1.58152
1.58152
1.5812
1.5808
1.58045
1.57998
1.57952
1.57905
1.57861
1.5781
1.57748
1.57684
1.57625
1.57574
1.57531
1.57491
1.57456
1.57424
1.57399
1.57382
1.5736
1.57331
1.57291
1.57246
1.57211
1.57155
1
1
1
1
1
1
1
1
1
1
1
1
1
1
1
0.999999
1
0.999997
1.00031
1.00501
1.04737
1.13347
1.27452
1.40536
1.50334
1.57244
1.58267
1.59233
1.59482
1.59319
1.59048
1.58436
1.57592
1.57281
1.57353
1.57715
1.58081
1.58297
1.58444
1.58584
1.5869
1.58704
1.58691
1.58617
1.58498
1.58449
1.58373
1.58246
1.58114
1.58061
1.58065
1.58129
1.58185
1.58181
1.58168
1.58171
1.58194
1.58238
1.58268
1.58266
1.5824
1.58201
1.58164
1.58135
1.58107
1.58068
1.58033
1.57999
1.57963
1.57924
1.57877
1.57833
1.57804
1.57784
1.57772
1.57763
1.5774
1.57702
1.57668
1.5762
1
1
1
1
1
1
1
1
1
1
1
1
1
1
1
1
1
1
1
0.999995
1.00003
1.00074
1.00989
1.06973
1.16413
1.30854
1.42251
1.51531
1.56768
1.56877
1.57586
1.5806
1.57411
1.57083
1.57181
1.5758
1.57829
1.5777
1.5777
1.5787
1.58088
1.5834
1.58479
1.58549
1.58646
1.58674
1.58658
1.58556
1.58406
1.58289
1.58231
1.5822
1.58211
1.58165
1.58091
1.58069
1.58079
1.58136
1.58203
1.58222
1.58218
1.5822
1.58248
1.58289
1.58314
1.58323
1.5832
1.58303
1.58276
1.58237
1.58197
1.58172
1.58157
1.58139
1.58123
1.58112
1.58091
1.58059
1.58032
1.57995
1
1
1
1
1
1
1
1
1
1
1
1
1
1
1
1
1
1
1
1
1
1
0.999991
1.00016
1.00178
1.01971
1.09631
1.20614
1.34077
1.43953
1.52983
1.5658
1.57032
1.57493
1.57947
1.57693
1.57497
1.57322
1.56959
1.5683
1.56872
1.57117
1.57548
1.57862
1.58082
1.58261
1.58376
1.58432
1.58415
1.58394
1.58402
1.58392
1.58356
1.58247
1.58064
1.57967
1.57967
1.58044
1.58113
1.58115
1.58103
1.5809
1.58109
1.58184
1.58274
1.58343
1.58371
1.58372
1.58369
1.58363
1.58348
1.58335
1.58326
1.58315
1.58295
1.58269
1.58242
1.58218
1.58203
1.58181
1
1
1
1
1
1
1
1
1
1
1
1
1
1
1
1
1
1
1
1
1
1
1
1
0.999999
0.999997
1.0005
1.00437
1.03818
1.12926
1.25225
1.37953
1.47023
1.54351
1.56487
1.56761
1.57384
1.57423
1.56863
1.56497
1.56373
1.56426
1.56667
1.56859
1.56967
1.57137
1.57399
1.57724
1.57919
1.57998
1.58088
1.58161
1.58174
1.58135
1.58056
1.58034
1.58038
1.58044
1.58037
1.58005
1.57948
1.5792
1.57935
1.58
1.581
1.58168
1.58207
1.58235
1.58271
1.58316
1.58324
1.58321
1.58321
1.5831
1.58285
1.5826
1.58233
1.58217
1.58217
1.58217
1
1
1
1
1
1
1
1
1
1
1
1
1
1
1
1
1
1
1
1
1
1
1
1
1
1
1
0.999995
1.00007
1.00145
1.01105
1.0776
1.19155
1.31914
1.41263
1.49646
1.55267
1.56362
1.56554
1.56934
1.57049
1.5684
1.56602
1.56426
1.56356
1.56382
1.56436
1.56551
1.56809
1.57021
1.57235
1.57447
1.57588
1.57678
1.57678
1.57705
1.57799
1.57914
1.57979
1.57978
1.57911
1.57821
1.57791
1.57799
1.57857
1.57938
1.5798
1.58017
1.58067
1.58122
1.58145
1.58151
1.5816
1.58164
1.58163
1.58165
1.58171
1.58185
1.58211
1.5824
1
1
1
1
1
1
1
1
1
1
1
1
1
1
1
1
1
1
1
1
1
1
1
1
1
1
1
1
1
1
0.999995
1.00053
1.00488
1.03151
1.12632
1.24629
1.3761
1.45747
1.52384
1.55252
1.56145
1.56571
1.56874
1.56853
1.5677
1.56597
1.56303
1.56152
1.56177
1.563
1.56471
1.56646
1.56698
1.56752
1.56882
1.57084
1.57356
1.57553
1.57625
1.57623
1.57558
1.57555
1.576
1.57659
1.57724
1.57774
1.57792
1.57804
1.5782
1.57846
1.57885
1.57925
1.57956
1.57979
1.57997
1.58016
1.58042
1.58077
1.58124
1.58187
1
1
1
1
1
1
1
1
1
1
1
1
1
1
1
1
1
1
1
1
1
1
1
1
1
1
1
1
1
1
1
1
0.999996
1.00006
1.00194
1.01258
1.0791
1.2131
1.33956
1.42628
1.4909
1.54154
1.55991
1.56232
1.56452
1.5673
1.56765
1.56681
1.56501
1.56348
1.56348
1.56323
1.56241
1.56179
1.56247
1.56432
1.56665
1.56834
1.56905
1.56946
1.57008
1.57103
1.5719
1.57294
1.57394
1.57468
1.57507
1.57531
1.57565
1.57602
1.57649
1.57705
1.57736
1.57747
1.57762
1.57788
1.5783
1.57893
1.57971
1.58075
1
1
1
1
1
1
1
1
1
1
1
1
1
1
1
1
1
1
1
1
1
1
1
1
1
1
1
1
1
1
1
1
1
1
0.999999
1
1.00083
1.00907
1.04623
1.16389
1.29646
1.4128
1.47573
1.52058
1.54477
1.55867
1.56324
1.56495
1.56476
1.5648
1.56619
1.56695
1.56592
1.56375
1.56267
1.5626
1.56312
1.56402
1.56407
1.56391
1.5641
1.56522
1.56657
1.56816
1.5694
1.57015
1.57079
1.57134
1.57195
1.57265
1.57358
1.5746
1.57519
1.57545
1.57563
1.57585
1.57623
1.57681
1.57767
1.57895
1
1
1
1
1
1
1
1
1
1
1
1
1
1
1
1
1
1
1
1
1
1
1
1
1
1
1
1
1
1
1
1
1
1
1
1
1
1
1.00025
1.00534
1.0282
1.12271
1.27515
1.40732
1.47183
1.50867
1.5336
1.5508
1.55544
1.55877
1.5625
1.56433
1.56463
1.56402
1.56349
1.56411
1.56552
1.56593
1.56525
1.56292
1.56174
1.5619
1.56285
1.56421
1.56516
1.56564
1.56608
1.56684
1.56774
1.56871
1.56981
1.57094
1.5717
1.57211
1.57251
1.573
1.57364
1.57446
1.5754
1.57679
1
1
1
1
1
1
1
1
1
1
1
1
1
1
1
1
1
1
1
1
1
1
1
1
1
1
1
1
1
1
1
1
1
1
1
1
1
1
1
1
1.00009
1.00302
1.02516
1.10238
1.25162
1.39271
1.48022
1.5139
1.53113
1.5374
1.54596
1.55077
1.55595
1.55872
1.5603
1.56209
1.5637
1.56476
1.56439
1.56279
1.56237
1.56263
1.56299
1.56333
1.56359
1.56346
1.56333
1.56349
1.56408
1.56501
1.56614
1.56711
1.5678
1.56844
1.56905
1.56972
1.57053
1.57151
1.57245
1.57378
1
1
1
1
1
1
1
1
1
1
1
1
1
1
1
1
1
1
1
1
1
1
1
1
1
1
1
1
1
1
1
1
1
1
1
1
1
1
1
1
1
0.999999
1.00008
1.00191
1.02268
1.0887
1.23432
1.38806
1.50521
1.53106
1.53681
1.54129
1.54502
1.54841
1.55064
1.55272
1.55518
1.55784
1.5594
1.55985
1.56022
1.5613
1.56264
1.56341
1.56373
1.5635
1.56301
1.56281
1.56279
1.56309
1.56384
1.56442
1.56481
1.56535
1.56599
1.56666
1.5675
1.5685
1.56932
1.57042
1
1
1
1
1
1
1
1
1
1
1
1
1
1
1
1
1
1
1
1
1
1
1
1
1
1
1
1
1
1
1
1
1
1
1
1
1
1
1
1
1
1
1
0.999999
1.00008
1.00138
1.02058
1.0932
1.25119
1.39586
1.49846
1.54545
1.55039
1.55337
1.55178
1.55126
1.55187
1.55144
1.55214
1.55322
1.55371
1.55569
1.55845
1.56059
1.56178
1.56166
1.56137
1.56152
1.5617
1.56207
1.56245
1.5628
1.56303
1.56333
1.56372
1.56426
1.56509
1.56603
1.56668
1.5675
1
1
1
1
1
1
1
1
1
1
1
1
1
1
1
1
1
1
1
1
1
1
1
1
1
1
1
1
1
1
1
1
1
1
1
1
1
1
1
1
1
1
1
1
1
0.999999
1.00009
1.00167
1.02338
1.11331
1.25802
1.40349
1.50471
1.55169
1.55888
1.56012
1.56272
1.55969
1.5555
1.55418
1.55415
1.55498
1.55642
1.5569
1.55757
1.5582
1.55855
1.55932
1.56047
1.56057
1.56051
1.5606
1.56087
1.56126
1.56159
1.56217
1.5631
1.56391
1.56446
1.56521
1
1
1
1
1
1
1
1
1
1
1
1
1
1
1
1
1
1
1
1
1
1
1
1
1
1
1
1
1
1
1
1
1
1
1
1
1
1
1
1
1
1
1
1
1
1
1
0.999999
1.00014
1.00256
1.02746
1.1345
1.28571
1.42529
1.50914
1.5469
1.56045
1.56288
1.56254
1.56083
1.5611
1.56158
1.56116
1.55949
1.55743
1.55678
1.55702
1.55776
1.55853
1.55864
1.55865
1.55865
1.55901
1.55953
1.55992
1.56071
1.56166
1.56214
1.56249
1.56316
1
1
1
1
1
1
1
1
1
1
1
1
1
1
1
1
1
1
1
1
1
1
1
1
1
1
1
1
1
1
1
1
1
1
1
1
1
1
1
1
1
1
1
1
1
1
1
1
1
1
1.00022
1.00412
1.03742
1.17126
1.34435
1.44818
1.50602
1.54499
1.55684
1.55822
1.56255
1.56464
1.56444
1.56273
1.56029
1.55922
1.55884
1.5589
1.55912
1.55913
1.55886
1.55839
1.55862
1.55889
1.55931
1.56005
1.56058
1.56096
1.56124
1.56172
1
1
1
1
1
1
1
1
1
1
1
1
1
1
1
1
1
1
1
1
1
1
1
1
1
1
1
1
1
1
1
1
1
1
1
1
1
1
1
1
1
1
1
1
1
1
1
1
1
1
1
1
1.00048
1.00915
1.06471
1.22142
1.37959
1.49012
1.52198
1.53607
1.54661
1.55262
1.55661
1.55855
1.55906
1.55978
1.56046
1.56044
1.5604
1.5602
1.55958
1.55908
1.55915
1.5593
1.55964
1.5601
1.5603
1.56029
1.56034
1.56059
1
1
1
1
1
1
1
1
1
1
1
1
1
1
1
1
1
1
1
1
1
1
1
1
1
1
1
1
1
1
1
1
1
1
1
1
1
1
1
1
1
1
1
1
1
1
1
1
1
1
1
1
1
1.00003
1.00129
1.01997
1.09767
1.26935
1.45449
1.53514
1.53938
1.54202
1.54683
1.55237
1.55372
1.5549
1.55678
1.55775
1.55801
1.55831
1.55848
1.55867
1.55894
1.55965
1.56024
1.56023
1.56021
1.56024
1.55993
1.55966
1
1
1
1
1
1
1
1
1
1
1
1
1
1
1
1
1
1
1
1
1
1
1
1
1
1
1
1
1
1
1
1
1
1
1
1
1
1
1
1
1
1
1
1
1
1
1
1
1
1
1
1
1
1
1
1.00013
1.00319
1.03924
1.17734
1.36869
1.48586
1.54223
1.55927
1.56181
1.55966
1.5578
1.55814
1.55781
1.55653
1.55597
1.55631
1.55709
1.55781
1.55885
1.55972
1.55985
1.55988
1.55989
1.5596
1.55886
1
1
1
1
1
1
1
1
1
1
1
1
1
1
1
1
1
1
1
1
1
1
1
1
1
1
1
1
1
1
1
1
1
1
1
1
1
1
1
1
1
1
1
1
1
1
1
1
1
1
1
1
1
1
1
1
1.00001
1.00058
1.01197
1.10432
1.25954
1.41036
1.51586
1.55525
1.56266
1.56642
1.56576
1.56428
1.56168
1.55888
1.55816
1.55833
1.55887
1.55964
1.55973
1.55952
1.55923
1.55926
1.55943
1.55908
1
1
1
1
1
1
1
1
1
1
1
1
1
1
1
1
1
1
1
1
1
1
1
1
1
1
1
1
1
1
1
1
1
1
1
1
1
1
1
1
1
1
1
1
1
1
1
1
1
1
1
1
1
1
1
1
1
1
1.00009
1.00341
1.0347
1.17409
1.35887
1.47846
1.524
1.55152
1.56119
1.56051
1.55965
1.55956
1.56034
1.56086
1.5612
1.56129
1.56075
1.55936
1.55839
1.55841
1.55916
1.5602
1
1
1
1
1
1
1
1
1
1
1
1
1
1
1
1
1
1
1
1
1
1
1
1
1
1
1
1
1
1
1
1
1
1
1
1
1
1
1
1
1
1
1
1
1
1
1
1
1
1
1
1
1
1
1
1
1
1
1
1.00001
1.00064
1.01241
1.08944
1.28506
1.47282
1.52448
1.53855
1.54591
1.55139
1.55482
1.55729
1.55967
1.56187
1.56229
1.56135
1.55892
1.55631
1.55574
1.55688
1.56039
1
1
1
1
1
1
1
1
1
1
1
1
1
1
1
1
1
1
1
1
1
1
1
1
1
1
1
1
1
1
1
1
1
1
1
1
1
1
1
1
1
1
1
1
1
1
1
1
1
1
1
1
1
1
1
1
1
1
1
1
1
1.00009
1.00397
1.05057
1.21163
1.39847
1.51506
1.55327
1.55748
1.55941
1.56005
1.56182
1.56227
1.56231
1.56192
1.55951
1.55598
1.5533
1.5529
1.55616
1
1
1
1
1
1
1
1
1
1
1
1
1
1
1
1
1
1
1
1
1
1
1
1
1
1
1
1
1
1
1
1
1
1
1
1
1
1
1
1
1
1
1
1
1
1
1
1
1
1
1
1
1
1
1
1
1
1
1
1
1
1
1.00003
1.0012
1.02418
1.15037
1.3381
1.46958
1.53771
1.56502
1.56399
1.56217
1.56298
1.56532
1.56682
1.5662
1.56294
1.55707
1.55223
1.55278
1
1
1
1
1
1
1
1
1
1
1
1
1
1
1
1
1
1
1
1
1
1
1
1
1
1
1
1
1
1
1
1
1
1
1
1
1
1
1
1
1
1
1
1
1
1
1
1
1
1
1
1
1
1
1
1
1
1
1
1
1
1
1
1
1.00047
1.00998
1.08682
1.29154
1.47431
1.53976
1.54075
1.54151
1.54488
1.55386
1.56457
1.56869
1.56877
1.56731
1.56096
1.55467
1
1
1
1
1
1
1
1
1
1
1
1
1
1
1
1
1
1
1
1
1
1
1
1
1
1
1
1
1
1
1
1
1
1
1
1
1
1
1
1
1
1
1
1
1
1
1
1
1
1
1
1
1
1
1
1
1
1
1
1
1
1
1
1
1
1.00009
1.00451
1.05853
1.23794
1.43205
1.54567
1.55262
1.54334
1.54139
1.54618
1.55727
1.56812
1.57007
1.56941
1.56433
1
1
1
1
1
1
1
1
1
1
1
1
1
1
1
1
1
1
1
1
1
1
1
1
1
1
1
1
1
1
1
1
1
1
1
1
1
1
1
1
1
1
1
1
1
1
1
1
1
1
1
1
1
1
1
1
1
1
1
1
1
1
1
1
1
1
1.00004
1.00199
1.03653
1.18229
1.40669
1.53563
1.55568
1.55333
1.54378
1.54461
1.55301
1.56566
1.57198
1.57038
1
1
1
1
1
1
1
1
1
1
1
1
1
1
1
1
1
1
1
1
1
1
1
1
1
1
1
1
1
1
1
1
1
1
1
1
1
1
1
1
1
1
1
1
1
1
1
1
1
1
1
1
1
1
1
1
1
1
1
1
1
1
1
1
1
1
1
1.00001
1.00089
1.02299
1.15442
1.36806
1.52637
1.55789
1.55909
1.54895
1.54765
1.55287
1.56264
1.56914
1
1
1
1
1
1
1
1
1
1
1
1
1
1
1
1
1
1
1
1
1
1
1
1
1
1
1
1
1
1
1
1
1
1
1
1
1
1
1
1
1
1
1
1
1
1
1
1
1
1
1
1
1
1
1
1
1
1
1
1
1
1
1
1
1
1
1
1
1
1.00053
1.01448
1.12863
1.34373
1.50696
1.55795
1.56375
1.55871
1.55219
1.55231
1.55867
1
1
1
1
1
1
1
1
1
1
1
1
1
1
1
1
1
1
1
1
1
1
1
1
1
1
1
1
1
1
1
1
1
1
1
1
1
1
1
1
1
1
1
1
1
1
1
1
1
1
1
1
1
1
1
1
1
1
1
1
1
1
1
1
1
1
1
1
1
1
1.00029
1.0105
1.10769
1.31866
1.48241
1.5573
1.56834
1.56767
1.55968
1.5537
1
1
1
1
1
1
1
1
1
1
1
1
1
1
1
1
1
1
1
1
1
1
1
1
1
1
1
1
1
1
1
1
1
1
1
1
1
1
1
1
1
1
1
1
1
1
1
1
1
1
1
1
1
1
1
1
1
1
1
1
1
1
1
1
1
1
1
1
1
1
1
1.00019
1.00753
1.09101
1.30355
1.46258
1.55636
1.56976
1.56973
1.56106
1
1
1
1
1
1
1
1
1
1
1
1
1
1
1
1
1
1
1
1
1
1
1
1
1
1
1
1
1
1
1
1
1
1
1
1
1
1
1
1
1
1
1
1
1
1
1
1
1
1
1
1
1
1
1
1
1
1
1
1
1
1
1
1
1
1
1
1
1
1
1
1
1.00014
1.00596
1.08262
1.29371
1.45565
1.55816
1.56694
1.56579
1
1
1
1
1
1
1
1
1
1
1
1
1
1
1
1
1
1
1
1
1
1
1
1
1
1
1
1
1
1
1
1
1
1
1
1
1
1
1
1
1
1
1
1
1
1
1
1
1
1
1
1
1
1
1
1
1
1
1
1
1
1
1
1
1
1
1
1
1
1
1
1
1
1.00011
1.00587
1.07725
1.27231
1.49711
1.53187
1.5701
1
1
1
1
1
1
1
1
1
1
1
1
1
1
1
1
1
1
1
1
1
1
1
1
1
1
1
1
1
1
1
1
1
1
1
1
1
1
1
1
1
1
1
1
1
1
1
1
1
1
1
1
1
1
1
1
1
1
1
1
1
1
1
1
1
1
1
1
1
1
1
1
1
1
1.00015
1.00435
1.07865
1.30486
1.44232
1.67612
1
1
1
1
1
1
1
1
1
1
1
1
1
1
1
1
1
1
1
1
1
1
1
1
1
1
1
1
1
1
1
1
1
1
1
1
1
1
1
1
1
1
1
1
1
1
1
1
1
1
1
1
1
1
1
1
1
1
1
1
1
1
1
1
1
1
1
1
1
1
1
1
1
1
1
1.00007
1.008
1.07979
1.36035
1.84985
)
;

boundaryField
{
    inlet
    {
        type            fixedValue;
        value           uniform 1;
    }
    outlet
    {
        type            zeroGradient;
    }
    bottom
    {
        type            symmetryPlane;
    }
    top
    {
        type            symmetryPlane;
    }
    obstacle
    {
        type            zeroGradient;
    }
    defaultFaces
    {
        type            empty;
    }
}


// ************************************************************************* //
