/*--------------------------------*- C++ -*----------------------------------*\
| =========                 |                                                 |
| \\      /  F ield         | OpenFOAM: The Open Source CFD Toolbox           |
|  \\    /   O peration     | Version:  2206                                  |
|   \\  /    A nd           | Website:  www.openfoam.com                      |
|    \\/     M anipulation  |                                                 |
\*---------------------------------------------------------------------------*/
FoamFile
{
    version     2.0;
    format      ascii;
    arch        "LSB;label=32;scalar=64";
    class       volVectorField;
    location    "0.14";
    object      U;
}
// * * * * * * * * * * * * * * * * * * * * * * * * * * * * * * * * * * * * * //

dimensions      [0 1 -1 0 0 0 0];

internalField   nonuniform List<vector> 
4800
(
(5.38384 -2.00368e-15 0)
(5.38384 3.3039e-15 0)
(5.38384 1.00117e-14 0)
(5.38384 1.01251e-14 0)
(5.38384 -2.17071e-14 0)
(5.38384 -5.67198e-14 0)
(5.38384 -4.67014e-14 0)
(5.38384 8.27143e-15 0)
(5.38384 6.03771e-15 0)
(5.38384 1.13853e-14 0)
(5.38384 2.50843e-14 0)
(5.38384 3.73798e-14 0)
(5.38384 4.70581e-14 0)
(5.38384 4.33775e-14 0)
(5.38384 2.5201e-14 0)
(5.38384 4.0397e-14 0)
(5.38384 7.57297e-14 0)
(5.38384 7.28492e-14 0)
(5.38384 6.87452e-14 0)
(5.38384 2.20871e-14 0)
(5.38384 1.72196e-14 0)
(5.38384 -1.60428e-14 0)
(5.38384 -7.15724e-14 0)
(5.38384 -1.62861e-14 0)
(5.38384 5.67465e-14 0)
(5.38384 7.23958e-14 0)
(5.38384 4.68614e-14 0)
(5.38384 5.47828e-14 0)
(5.38384 7.17591e-14 0)
(5.38384 -2.82782e-14 0)
(5.38384 -6.65615e-14 0)
(5.38384 -5.39793e-14 0)
(5.38384 1.09986e-14 0)
(5.38384 6.10172e-14 0)
(5.38384 3.33258e-14 0)
(5.38384 5.80567e-14 0)
(5.38384 6.23274e-14 0)
(5.38384 8.09173e-14 0)
(5.38384 1.5277e-13 0)
(5.38384 7.78601e-14 0)
(5.38384 3.62063e-15 0)
(5.38384 -7.46129e-15 0)
(5.38384 -1.40658e-14 0)
(5.38384 -2.8865e-14 0)
(5.38384 -4.25273e-14 0)
(5.38384 -4.86784e-14 0)
(5.38384 -3.57962e-14 0)
(5.38384 -1.67629e-14 0)
(5.38384 -1.57527e-14 0)
(5.38384 -2.80182e-14 0)
(5.38384 -1.96467e-14 0)
(5.38384 3.12054e-14 0)
(5.38384 9.77235e-14 0)
(5.38384 1.47599e-13 0)
(5.38384 4.4371e-14 0)
(5.38384 2.24972e-14 0)
(5.38384 5.78833e-14 0)
(5.38384 9.16558e-14 0)
(5.38384 2.5371e-15 0)
(5.38384 -7.55731e-14 0)
(5.38384 -1.09269e-13 0)
(5.38384 -1.55173e-13 0)
(5.38384 -1.15777e-13 0)
(5.38384 -1.924e-14 0)
(5.38384 2.56378e-15 0)
(5.38384 3.95468e-14 0)
(5.38384 -1.42825e-14 0)
(5.38384 -1.61328e-14 0)
(5.38384 -2.02768e-14 0)
(5.38384 -2.66846e-14 0)
(5.38384 -3.80732e-14 0)
(5.38384 -3.14021e-14 0)
(5.38384 -4.83417e-16 0)
(5.38384 5.44327e-14 0)
(5.38384 7.08356e-14 0)
(5.38384 9.80536e-14 0)
(5.38384 8.60749e-14 0)
(5.38384 4.93952e-14 0)
(5.38384 6.61314e-14 0)
(5.38384 6.66314e-14 0)
(5.38384 7.12123e-15 0)
(5.38384 -2.05035e-15 0)
(5.38384 9.4683e-16 0)
(5.38384 -6.41111e-15 0)
(5.38384 -5.0442e-15 0)
(5.38384 3.79566e-14 0)
(5.38384 6.45011e-14 0)
(5.38384 3.96669e-14 0)
(5.38384 2.84316e-14 0)
(5.38384 -1.75364e-15 0)
(5.38384 -1.11186e-14 0)
(5.38384 -3.874e-15 0)
(5.38384 5.45161e-14 0)
(5.38384 8.86953e-14 0)
(5.38384 8.41879e-14 0)
(5.38384 2.76648e-14 0)
(5.38384 -1.65028e-15 0)
(5.38384 -1.47826e-14 0)
(5.38384 -3.04319e-14 0)
(5.38384 -3.24056e-14 0)
(5.38384 -2.17371e-14 0)
(5.38384 -1.28589e-14 0)
(5.38384 1.02084e-13 0)
(5.38384 1.77267e-13 0)
(5.38384 1.62841e-13 0)
(5.38384 1.51533e-13 0)
(5.38384 1.564e-13 0)
(5.38384 6.46812e-14 0)
(5.38384 2.22505e-14 0)
(5.38384 1.40691e-15 0)
(5.38384 -2.60712e-15 0)
(5.38384 -3.69697e-14 0)
(5.38384 -4.53312e-14 0)
(5.38384 9.35161e-15 0)
(5.38384 1.24261e-13 0)
(5.38384 1.04611e-13 0)
(5.38384 4.10304e-14 0)
(5.38384 -3.81633e-14 0)
(5.38384 -7.04522e-14 0)
(5.38384 -1.82472e-14 0)
(5.38384 -6.87119e-15 0)
(5.38384 7.87803e-15 0)
(5.38384 4.4531e-14 0)
(5.38384 2.35541e-14 0)
(5.38384 -5.37026e-14 0)
(5.38384 -5.762e-14 0)
(5.38384 2.68746e-14 0)
(5.38384 9.17392e-14 0)
(5.38384 1.11843e-13 0)
(5.38384 7.71367e-14 0)
(5.38384 7.25792e-14 0)
(5.38384 3.93368e-14 0)
(5.38384 -1.38657e-14 0)
(5.38384 5.63797e-14 0)
(5.38384 8.16974e-14 0)
(5.38384 8.36978e-14 0)
(5.38384 6.91453e-14 0)
(5.38384 1.64162e-14 0)
(5.38384 2.95184e-14 0)
(5.38384 4.38242e-14 0)
(5.38384 8.47246e-14 0)
(5.38384 1.27862e-13 0)
(5.38384 1.84549e-13 0)
(5.38384 2.53527e-13 0)
(5.38384 2.5284e-13 0)
(5.38384 1.50659e-13 0)
(5.38384 1.07532e-13 0)
(5.38384 -3.18722e-15 0)
(5.38384 -5.16556e-14 0)
(5.38384 -8.2991e-14 0)
(5.38384 -8.64516e-14 0)
(5.38384 -6.12372e-14 0)
(5.38384 -4.12438e-14 0)
(5.38384 -2.95151e-14 0)
(5.38384 1.01161e-13 0)
(5.38384 1.368e-13 0)
(5.38384 1.53633e-13 0)
(5.38384 1.40291e-13 0)
(5.38384 6.86819e-14 0)
(5.38384 4.49606e-14 0)
(5.38384 -2.96718e-16 0)
(5.38384 -5.3976e-15 0)
(5.38384 -2.81715e-15 0)
(5.38384 -1.50026e-16 0)
(5.38384 -3.14554e-14 0)
(5.38384 -4.78783e-14 0)
(5.38384 -3.21055e-14 0)
(5.38384 3.84e-14 0)
(5.38384 6.87752e-14 0)
(5.38384 8.63949e-14 0)
(5.38384 6.5408e-14 0)
(5.38384 6.43945e-14 0)
(5.38384 6.5408e-14 0)
(5.38384 2.42175e-14 0)
(5.38384 3.56828e-14 0)
(5.38384 3.31191e-14 0)
(5.38384 4.00069e-16 0)
(5.38384 -2.36074e-14 0)
(5.38384 -1.89766e-14 0)
(5.38384 -7.12123e-15 0)
(5.38384 1.84265e-14 0)
(5.38384 6.44645e-14 0)
(5.38384 5.08821e-14 0)
(5.38384 3.02119e-14 0)
(5.38384 3.14988e-14 0)
(5.38384 8.21809e-15 0)
(5.38384 -6.88152e-14 0)
(5.38384 -1.22705e-13 0)
(5.38384 -1.06072e-13 0)
(5.38384 -8.83286e-14 0)
(5.38384 -1.27355e-14 0)
(5.38384 4.21773e-14 0)
(5.38384 4.00836e-14 0)
(5.38384 6.40544e-14 0)
(5.38384 1.12173e-13 0)
(5.38384 1.43278e-13 0)
(5.38384 1.63005e-13 0)
(5.38384 1.741e-13 0)
(5.38384 7.83169e-14 0)
(5.38384 4.92094e-14 0)
(5.38384 1.93233e-14 0)
(5.38384 2.38841e-14 0)
(5.38384 -1.79564e-14 0)
(5.38384 5.38426e-15 0)
(5.38384 3.35325e-14 0)
(5.38384 3.0962e-14 0)
(5.38384 1.63228e-14 0)
(5.38384 -1.68362e-14 0)
(5.38384 -2.44509e-14 0)
(5.38384 3.13321e-14 0)
(5.38384 9.01289e-14 0)
(5.38384 1.18884e-13 0)
(5.38384 1.04385e-13 0)
(5.38384 9.99839e-14 0)
(5.38384 6.74717e-14 0)
(5.38384 -1.70729e-14 0)
(5.38384 -8.04906e-14 0)
(5.38384 -9.76369e-14 0)
(5.38384 -1.21198e-13 0)
(5.38384 -1.00517e-13 0)
(5.38384 -7.9307e-14 0)
(5.38384 -4.7975e-14 0)
(5.38384 -1.14676e-13 0)
(5.38384 -1.64382e-13 0)
(5.38384 -1.57017e-13 0)
(5.38384 -1.05212e-13 0)
(5.38384 -3.02319e-14 0)
(5.38384 4.50778e-14 0)
(5.38384 6.27042e-14 0)
(5.38384 7.3096e-14 0)
(5.38384 5.2229e-14 0)
(5.38384 -2.61045e-15 0)
(5.38384 -3.21456e-14 0)
(5.38384 -5.96636e-14 0)
(5.38384 -9.41363e-14 0)
(5.38384 -8.98622e-14 0)
(5.38384 -6.33476e-14 0)
(5.38384 2.18504e-14 0)
(5.38384 2.87883e-14 0)
(5.38384 6.76944e-14 0)
(5.38384 -6.58114e-15 0)
(5.38384 -7.69466e-15 0)
(5.38384 -1.77697e-14 0)
(5.38384 -2.80715e-14 0)
(5.38384 6.22441e-15 0)
(5.38384 -3.02386e-15 0)
(5.38384 -3.77332e-14 0)
(5.38384 -3.89334e-14 0)
(5.38384 -8.1214e-15 0)
(5.38384 2.02835e-14 0)
(5.38384 5.60163e-14 0)
(5.38384 3.14488e-14 0)
(5.38384 3.04086e-14 0)
(5.38384 5.12489e-14 0)
(5.38384 4.8075e-14 0)
(5.38384 2.4821e-14 0)
(5.38384 -4.45044e-14 0)
(5.38384 -7.9297e-14 0)
(5.38384 -4.61813e-14 0)
(5.38384 -3.63496e-14 0)
(5.38384 5.52429e-15 0)
(5.38384 -1.05151e-14 0)
(5.38384 -8.91387e-14 0)
(5.38384 -1.37474e-13 0)
(5.38384 -1.73673e-13 0)
(5.38384 -1.49049e-13 0)
(5.38384 -6.07805e-14 0)
(5.38384 7.03755e-14 0)
(5.38384 1.19271e-13 0)
(5.38384 1.15053e-13 0)
(5.38384 3.867e-14 0)
(5.38384 -9.73135e-14 0)
(5.38384 -9.678e-14 0)
(5.38384 -1.29682e-13 0)
(5.38384 -1.72323e-13 0)
(5.38384 -1.7412e-13 0)
(5.38384 -1.10886e-13 0)
(5.38384 -7.32993e-14 0)
(5.38384 -9.38829e-15 0)
(5.38384 2.08579e-14 0)
(5.38384 -6.16773e-16 0)
(5.38384 -7.83469e-15 0)
(5.38384 2.4971e-15 0)
(5.38384 -3.42059e-14 0)
(5.38384 -4.40609e-14 0)
(5.38384 -6.40311e-14 0)
(5.38384 -5.98703e-14 0)
(5.38384 -2.39775e-14 0)
(5.38384 -1.3509e-14 0)
(5.38384 -1.04018e-14 0)
(5.38384 -3.37892e-14 0)
(5.38384 -3.93868e-14 0)
(5.38384 -2.15604e-14 0)
(5.38384 -2.25972e-14 0)
(5.38384 -3.79065e-14 0)
(5.38384 -5.20123e-14 0)
(5.38384 -5.2229e-14 0)
(5.38384 -3.99569e-14 0)
(5.38384 -6.69116e-14 0)
(5.38384 -1.23288e-13 0)
(5.38384 -1.5646e-13 0)
(5.38384 -1.62341e-13 0)
(5.38384 -7.41628e-14 0)
(5.38384 -6.08372e-14 0)
(5.38384 -9.4643e-14 0)
(5.38384 -1.36567e-13 0)
(5.38384 -1.42275e-13 0)
(5.38384 -8.61982e-14 0)
(5.38384 -3.73364e-14 0)
(5.38384 -7.01788e-15 0)
(5.38384 1.39224e-14 0)
(5.38384 -4.91952e-14 0)
(5.38384 -1.70146e-13 0)
(5.38384 -1.87909e-13 0)
(5.38384 -1.7496e-13 0)
(5.38384 -1.71996e-13 0)
(5.38384 -1.84905e-13 0)
(5.38384 -1.26225e-13 0)
(5.38384 -1.05358e-13 0)
(5.38384 -3.03579e-14 0)
(5.38384 3.33724e-15 0)
(5.38384 2.29506e-14 0)
(5.38384 5.27724e-14 0)
(5.38384 6.29409e-14 0)
(5.38384 3.11987e-14 0)
(5.38384 6.5378e-15 0)
(5.38384 1.7353e-14 0)
(5.38384 3.22656e-14 0)
(5.38384 1.43358e-14 0)
(5.38384 -4.90085e-15 0)
(5.38384 1.68696e-15 0)
(5.38384 -8.52347e-14 0)
(5.38384 -1.34577e-13 0)
(5.38384 -1.59474e-13 0)
(5.38384 -1.45322e-13 0)
(5.38384 -1.82648e-13 0)
(5.38384 -1.79898e-13 0)
(5.38384 -7.70466e-14 0)
(5.38384 4.2754e-14 0)
(5.38384 5.18323e-14 0)
(5.38384 1.64728e-14 0)
(5.38384 -1.11663e-13 0)
(5.38384 -9.15291e-14 0)
(5.38384 2.39541e-14 0)
(5.38384 2.07369e-14 0)
(5.38384 7.00454e-15 0)
(5.38384 -4.86684e-14 0)
(5.38384 -6.79317e-14 0)
(5.38384 -7.12156e-14 0)
(5.38384 -5.81367e-14 0)
(5.38384 -5.13822e-14 0)
(5.38384 -8.34677e-14 0)
(5.38384 -1.37237e-13 0)
(5.38384 -1.15297e-13 0)
(5.38384 -8.51714e-14 0)
(5.38384 -1.29906e-13 0)
(5.38384 -1.89353e-13 0)
(5.38384 -1.53893e-13 0)
(5.38384 -5.82301e-14 0)
(5.38384 1.73344e-14 0)
(5.38384 -1.08652e-14 0)
(5.38384 -2.94518e-14 0)
(5.38384 -1.7103e-15 0)
(5.38384 3.30057e-14 0)
(5.38384 4.26474e-14 0)
(5.38384 1.84532e-14 0)
(5.38384 -1.77197e-14 0)
(5.38384 -3.28157e-14 0)
(5.38384 -2.56278e-14 0)
(5.38384 -5.82834e-14 0)
(5.38384 -7.63032e-14 0)
(5.38384 -6.77284e-14 0)
(5.38384 -8.02639e-14 0)
(5.38384 -9.77936e-14 0)
(5.38384 -1.10822e-13 0)
(5.38384 -1.19201e-13 0)
(5.38384 -1.19434e-13 0)
(5.38384 5.89969e-14 0)
(5.38384 1.40241e-13 0)
(5.38384 1.32816e-13 0)
(5.38384 8.6865e-14 0)
(5.38384 7.03455e-15 0)
(5.38384 -6.28108e-14 0)
(5.38384 -4.86851e-14 0)
(5.38384 3.29057e-14 0)
(5.38384 5.29858e-14 0)
(5.38384 4.79649e-14 0)
(5.38384 6.13773e-15 0)
(5.38384 -5.17556e-14 0)
(5.38384 -8.14207e-14 0)
(5.38384 -8.30143e-14 0)
(5.38384 -6.85518e-14 0)
(5.38384 -3.89434e-14 0)
(5.38384 -6.40177e-14 0)
(5.38384 -1.83985e-13 0)
(5.38384 -2.4859e-13 0)
(5.38384 -1.37354e-13 0)
(5.38384 1.57594e-14 0)
(5.38384 4.8415e-14 0)
(5.38384 6.20606e-14 0)
(5.38384 2.91384e-15 0)
(5.38384 6.09105e-15 0)
(5.38384 -2.73047e-15 0)
(5.38384 1.51193e-14 0)
(5.38384 1.19187e-14 0)
(5.38384 -1.81331e-14 0)
(5.38384 -1.11586e-14 0)
(5.38384 -2.02702e-14 0)
(5.38384 -4.95552e-14 0)
(5.38384 -4.92052e-14 0)
(5.38384 -4.2294e-14 0)
(5.38384 -5.88102e-15 0)
(5.38384 8.4918e-14 0)
(5.38384 1.1642e-13 0)
(5.38384 5.4016e-14 0)
(5.38384 3.44459e-14 0)
(5.38384 9.15525e-14 0)
(5.38384 1.12319e-13 0)
(5.38384 1.05755e-13 0)
(5.38384 1.09762e-13 0)
(5.38384 9.21726e-14 0)
(5.38384 8.93821e-14 0)
(5.38384 5.65298e-14 0)
(5.38384 3.04253e-14 0)
(5.38384 1.86299e-14 0)
(5.38384 -2.53877e-14 0)
(5.38384 -1.67296e-14 0)
(5.38384 -2.53944e-14 0)
(5.38384 -4.92985e-14 0)
(5.38384 -3.87667e-14 0)
(5.38384 -3.85933e-14 0)
(5.38384 5.80434e-15 0)
(5.38384 9.35495e-15 0)
(5.38384 -4.75615e-14 0)
(5.38384 -1.40074e-13 0)
(5.38384 -1.28035e-13 0)
(5.38384 -9.31027e-14 0)
(5.38384 -1.84165e-14 0)
(5.38384 -8.1004e-14 0)
(5.38384 -7.8855e-14 0)
(5.38384 2.42709e-15 0)
(5.38384 3.33691e-14 0)
(5.38384 3.13087e-14 0)
(5.38384 1.71563e-14 0)
(5.38384 1.48359e-14 0)
(5.38384 2.71747e-14 0)
(5.38384 7.28126e-14 0)
(5.38384 6.9662e-14 0)
(5.38384 3.1092e-14 0)
(5.38384 -3.88867e-14 0)
(5.38384 -5.44894e-14 0)
(5.38384 -6.06371e-14 0)
(5.38384 1.84699e-15 0)
(5.38384 3.54228e-14 0)
(5.38384 2.37241e-14 0)
(5.38384 7.64432e-14 0)
(5.38384 1.20027e-13 0)
(5.38384 1.18114e-13 0)
(5.38384 1.25865e-13 0)
(5.38384 6.25308e-14 0)
(5.38384 1.57927e-14 0)
(5.38384 1.59761e-14 0)
(5.38384 2.6828e-14 0)
(5.38384 -7.10123e-16 0)
(5.38384 -4.81083e-15 0)
(5.38384 7.73467e-16 0)
(5.38384 -1.96134e-14 0)
(5.38384 -9.89171e-15 0)
(5.38384 -1.01451e-14 0)
(5.38384 -1.07319e-14 0)
(5.38384 -1.92433e-14 0)
(5.38384 5.55096e-15 0)
(5.38384 3.63229e-14 0)
(5.38384 3.6783e-14 0)
(5.38384 5.72032e-14 0)
(5.38384 8.33544e-14 0)
(5.38384 1.36597e-13 0)
(5.38384 7.71467e-14 0)
(5.38384 6.33043e-14 0)
(5.38384 1.53494e-14 0)
(5.38384 -3.47393e-15 0)
(5.38384 -1.48459e-14 0)
(5.38384 -1.24755e-14 0)
(5.38384 -2.29606e-14 0)
(5.38384 -3.42726e-14 0)
(5.38384 9.74835e-15 0)
(5.38384 1.15287e-14 0)
(5.38384 5.4046e-14 0)
(5.38384 5.92169e-14 0)
(5.38384 1.7203e-14 0)
(5.38384 -4.2374e-14 0)
(5.38384 -5.08888e-14 0)
(5.38384 -5.13455e-14 0)
(5.38384 -1.75864e-14 0)
(5.38384 5.801e-15 0)
(5.38384 4.85784e-14 0)
(5.38384 4.65514e-14 0)
(5.38384 4.33642e-14 0)
(5.38384 4.6578e-14 0)
(5.38384 3.38458e-14 0)
(5.38384 -3.21389e-14 0)
(5.38384 -9.78336e-14 0)
(5.38384 -1.22028e-13 0)
(5.38384 -5.87435e-14 0)
(5.38384 -3.12987e-14 0)
(5.38384 -1.98834e-14 0)
(5.38384 -1.7323e-14 0)
(5.38384 2.57845e-14 0)
(5.38384 4.73182e-14 0)
(5.38384 3.89301e-14 0)
(5.38384 -1.69696e-15 0)
(5.38384 -1.23088e-14 0)
(5.38384 2.03468e-14 0)
(5.38384 1.1487e-13 0)
(5.38384 1.03655e-13 0)
(5.38384 9.08657e-14 0)
(5.38384 8.61215e-14 0)
(5.38384 7.76101e-14 0)
(5.38384 4.82283e-14 0)
(5.38384 -4.16015e-14 0)
(5.38384 6.51446e-15 0)
(5.38384 -9.15491e-15 0)
(5.38384 -4.23573e-14 0)
(5.38384 -3.80232e-14 0)
(5.38384 1.71696e-15 0)
(5.38384 3.38892e-14 0)
(5.38384 1.87332e-14 0)
(5.38384 4.65147e-14 0)
(5.38384 9.89037e-14 0)
(5.38384 1.28199e-13 0)
(5.38384 7.10223e-14 0)
(5.38384 3.0972e-15 0)
(5.38384 -3.33924e-14 0)
(5.38384 -4.41876e-14 0)
(5.38384 -3.60062e-16 0)
(5.38384 2.26406e-14 0)
(5.38384 4.03436e-14 0)
(5.38384 6.33843e-14 0)
(5.38384 8.09773e-14 0)
(5.38384 9.04123e-14 0)
(5.38384 5.01853e-14 0)
(5.38384 2.7208e-14 0)
(5.38384 1.57794e-14 0)
(5.38384 2.06702e-15 0)
(5.38384 -1.13786e-14 0)
(5.38384 -4.0797e-14 0)
(5.38384 4.98086e-15 0)
(5.38384 1.37624e-14 0)
(5.38384 2.59845e-14 0)
(5.38384 1.95834e-14 0)
(5.38384 -4.07537e-14 0)
(5.38384 -1.02851e-14 0)
(5.38384 6.71849e-14 0)
(5.38384 1.43875e-13 0)
(5.38384 1.45332e-13 0)
(5.38384 1.00237e-13 0)
(5.38384 6.79217e-14 0)
(5.38384 2.67713e-14 0)
(5.38384 -1.57361e-15 0)
(5.38384 -6.83317e-15 0)
(5.38384 -4.89418e-15 0)
(5.38384 -1.01051e-14 0)
(5.38384 -2.05202e-14 0)
(5.38384 -3.74565e-14 0)
(5.38384 -1.44025e-14 0)
(5.38384 4.00002e-14 0)
(5.38384 5.98337e-14 0)
(5.38384 2.53744e-14 0)
(5.38384 1.76697e-16 0)
(5.38384 -3.50227e-14 0)
(5.38384 -4.90151e-14 0)
(5.38384 -5.34359e-14 0)
(5.38384 -7.48729e-14 0)
(5.38384 -7.32026e-14 0)
(5.38384 -5.53229e-14 0)
(5.38384 -2.59378e-15 0)
(5.38384 -2.21938e-14 0)
(5.38384 -5.11722e-14 0)
(5.38384 -3.72564e-14 0)
(5.38384 4.85517e-14 0)
(5.38384 1.11669e-13 0)
(5.38384 1.13353e-13 0)
(5.38384 1.21238e-13 0)
(5.38384 1.44972e-13 0)
(5.38384 1.69536e-13 0)
(5.38384 1.84802e-13 0)
(5.38384 1.95104e-13 0)
(5.38384 9.74568e-14 0)
(5.38384 4.83917e-14 0)
(5.38384 2.56878e-14 0)
(5.38384 2.38541e-14 0)
(5.38384 -6.25508e-14 0)
(5.38384 -7.70266e-14 0)
(5.38384 -1.7613e-14 0)
(5.38384 1.56027e-15 0)
(5.38384 3.40392e-15 0)
(5.38384 -3.71164e-14 0)
(5.38384 -1.24171e-13 0)
(5.38384 -1.39031e-13 0)
(5.38384 -1.8827e-13 0)
(5.38384 3.26056e-15 0)
(5.38384 -1.07018e-15 0)
(5.38384 3.82566e-14 0)
(5.38384 6.32443e-14 0)
(5.38384 2.82949e-14 0)
(5.38384 2.25372e-15 0)
(5.38384 -2.31273e-14 0)
(5.38384 -4.16939e-14 0)
(5.38384 -4.26007e-14 0)
(5.38384 -6.86452e-14 0)
(5.38384 -2.38508e-14 0)
(5.38384 -1.96401e-14 0)
(5.38384 -5.52429e-15 0)
(5.38384 3.50961e-14 0)
(5.38384 4.6548e-14 0)
(5.38384 6.17773e-14 0)
(5.38384 4.97153e-14 0)
(5.38384 2.6978e-14 0)
(5.38384 1.21921e-14 0)
(5.38384 -6.78784e-15 0)
(5.38384 1.63962e-14 0)
(5.38384 4.60346e-14 0)
(5.38384 4.68981e-14 0)
(5.38384 9.85837e-14 0)
(5.38384 2.20041e-13 0)
(5.38384 2.6737e-13 0)
(5.38384 2.55327e-13 0)
(5.38384 1.24328e-13 0)
(5.38384 9.67967e-14 0)
(5.38384 7.87836e-14 0)
(5.38384 5.68198e-14 0)
(5.38384 1.34623e-14 0)
(5.38384 -6.08438e-14 0)
(5.38384 -1.12326e-13 0)
(5.38384 -1.23768e-13 0)
(5.38384 -1.46852e-13 0)
(5.38384 -1.60434e-13 0)
(5.38384 -1.66285e-13 0)
(5.38384 -1.62041e-13 0)
(5.38384 -1.51351e-13 0)
(5.38384 1.05151e-14 0)
(5.38384 2.20605e-14 0)
(5.38384 2.41342e-14 0)
(5.38384 4.44043e-14 0)
(5.38384 5.5913e-14 0)
(5.38384 5.96436e-15 0)
(5.38384 -1.29756e-14 0)
(5.38384 1.17087e-14 0)
(5.38384 1.928e-14 0)
(5.38384 5.14155e-14 0)
(5.38384 8.59315e-14 0)
(5.38384 9.77736e-14 0)
(5.38384 1.13016e-13 0)
(5.38384 1.62645e-13 0)
(5.38384 1.7412e-13 0)
(5.38384 1.63842e-13 0)
(5.38384 9.91305e-14 0)
(5.38384 7.58964e-14 0)
(5.38384 1.00657e-13 0)
(5.38384 6.89952e-14 0)
(5.38384 -9.80236e-14 0)
(5.38384 -1.5296e-13 0)
(5.38384 -1.57467e-13 0)
(5.38384 -8.66816e-16 0)
(5.38384 8.02872e-14 0)
(5.38384 1.09306e-13 0)
(5.38384 4.08737e-14 0)
(5.38384 -1.55027e-15 0)
(5.38384 -3.94401e-14 0)
(5.38384 1.64062e-14 0)
(5.38384 9.05156e-14 0)
(5.38384 8.71584e-14 0)
(5.38384 6.68882e-14 0)
(5.38384 1.924e-14 0)
(5.38384 3.38959e-14 0)
(5.38384 5.86868e-14 0)
(5.38384 6.00704e-14 0)
(5.38384 7.44662e-14 0)
(5.38384 1.53276e-13 0)
(5.38384 2.6865e-13 0)
(5.38384 1.69696e-15 0)
(5.38384 1.19887e-14 0)
(5.38384 1.38724e-14 0)
(5.38384 -1.95534e-14 0)
(5.38384 -1.5496e-14 0)
(5.38384 4.77949e-14 0)
(5.38384 9.646e-14 0)
(5.38384 8.20508e-14 0)
(5.38384 8.58348e-14 0)
(5.38384 1.46555e-13 0)
(5.38384 1.46492e-13 0)
(5.38384 9.90771e-14 0)
(5.38384 1.13656e-13 0)
(5.38384 1.58801e-13 0)
(5.38384 1.63992e-13 0)
(5.38384 1.3418e-13 0)
(5.38384 7.705e-14 0)
(5.38384 -5.52062e-14 0)
(5.38384 -8.43179e-14 0)
(5.38384 -4.73048e-14 0)
(5.38384 -3.70631e-14 0)
(5.38384 -1.93133e-14 0)
(5.38384 6.06438e-15 0)
(5.38384 2.71814e-14 0)
(5.38384 5.37126e-14 0)
(5.38384 -1.84899e-14 0)
(5.38384 -3.4636e-14 0)
(5.38384 -3.19455e-14 0)
(5.38384 2.92617e-14 0)
(5.38384 1.48169e-13 0)
(5.38384 1.78674e-13 0)
(5.38384 2.21395e-13 0)
(5.38384 1.64882e-13 0)
(5.38384 1.31579e-13 0)
(5.38384 6.09172e-14 0)
(5.38384 -1.34457e-14 0)
(5.38384 -4.63013e-14 0)
(5.38384 5.52662e-14 0)
(5.38384 1.75487e-13 0)
(5.38384 2.08299e-13 0)
(5.38384 -5.53762e-15 0)
(5.38384 2.08803e-14 0)
(5.38384 1.81031e-14 0)
(5.38384 -5.07654e-14 0)
(5.38384 -5.56696e-14 0)
(5.38384 -2.57511e-14 0)
(5.38384 -2.44042e-15 0)
(5.38384 -2.46076e-14 0)
(5.38384 -2.94317e-14 0)
(5.38384 -1.31556e-14 0)
(5.38384 -6.26508e-14 0)
(5.38384 -9.68301e-14 0)
(5.38384 -1.03815e-13 0)
(5.38384 -9.64933e-14 0)
(5.38384 -3.73665e-14 0)
(5.38384 -1.76497e-14 0)
(5.38384 7.33127e-15 0)
(5.38384 1.27089e-14 0)
(5.38384 -5.95136e-14 0)
(5.38384 -7.07689e-14 0)
(5.38384 -4.70948e-14 0)
(5.38384 -1.53226e-14 0)
(5.38384 -6.66782e-15 0)
(5.38384 -9.27827e-15 0)
(5.38384 -2.62512e-14 0)
(5.38384 -1.05412e-13 0)
(5.38384 -1.5289e-13 0)
(5.38384 -1.25525e-13 0)
(5.38384 1.21788e-13 0)
(5.38384 2.09299e-13 0)
(5.38384 2.19468e-13 0)
(5.38384 1.7517e-13 0)
(5.38384 1.9399e-13 0)
(5.38384 2.03408e-13 0)
(5.38384 1.93803e-13 0)
(5.38384 1.58547e-13 0)
(5.38384 1.7227e-13 0)
(5.38384 2.4977e-13 0)
(5.38384 2.43735e-13 0)
(5.38384 2.02926e-13 0)
(5.38384 -2.1507e-14 0)
(5.38384 -1.66329e-14 0)
(5.38384 -2.8895e-14 0)
(5.38384 -1.1612e-14 0)
(5.38384 7.46796e-15 0)
(5.38384 -2.3364e-14 0)
(5.38384 -1.60368e-13 0)
(5.38384 -1.65889e-13 0)
(5.38384 -1.73207e-13 0)
(5.38384 -2.03645e-13 0)
(5.38384 -2.113e-13 0)
(5.38384 -1.98311e-13 0)
(5.38384 -1.48316e-13 0)
(5.38384 -1.61978e-13 0)
(5.38384 -2.08396e-13 0)
(5.38384 -2.00821e-13 0)
(5.38384 -1.65492e-13 0)
(5.38384 -1.17057e-13 0)
(5.38384 -5.25124e-14 0)
(5.38384 -4.60079e-15 0)
(5.38384 3.22722e-14 0)
(5.38384 -1.1602e-15 0)
(5.38384 -7.25292e-14 0)
(5.38384 -1.26058e-13 0)
(5.38384 -1.23321e-13 0)
(5.38384 -6.47945e-14 0)
(5.38384 -8.78618e-14 0)
(5.38384 -5.44361e-14 0)
(5.38384 -1.67362e-15 0)
(5.38384 6.00937e-14 0)
(5.38384 6.80317e-14 0)
(5.38384 8.48613e-14 0)
(5.38384 1.13883e-13 0)
(5.38384 1.46175e-13 0)
(5.38384 1.39214e-13 0)
(5.38384 1.81678e-13 0)
(5.38384 2.01762e-13 0)
(5.38384 2.20011e-13 0)
(5.38384 1.9572e-13 0)
(5.38384 1.57446e-13 0)
(5.38384 -6.1944e-15 0)
(5.38384 -2.88883e-14 0)
(5.38384 -8.58148e-15 0)
(5.38384 3.03119e-14 0)
(5.38384 2.58411e-14 0)
(5.38384 -3.23389e-16 0)
(5.38384 -4.68748e-15 0)
(5.38384 -6.86785e-14 0)
(5.38384 -7.693e-14 0)
(5.38384 -6.66882e-14 0)
(5.38384 -7.99005e-14 0)
(5.38384 -1.27682e-13 0)
(5.38384 -1.00347e-13 0)
(5.38384 -1.28629e-13 0)
(5.38384 -2.26209e-13 0)
(5.38384 -2.4996e-13 0)
(5.38384 -2.13914e-13 0)
(5.38384 -1.05232e-13 0)
(5.38384 -9.20626e-14 0)
(5.38384 -3.25056e-14 0)
(5.38384 9.76902e-14 0)
(5.38384 1.36304e-13 0)
(5.38384 1.25518e-13 0)
(5.38384 6.31009e-14 0)
(5.38384 2.58711e-14 0)
(5.38384 9.635e-16 0)
(5.38384 8.50113e-14 0)
(5.38384 1.31803e-13 0)
(5.38384 9.11157e-14 0)
(5.38384 3.30124e-14 0)
(5.38384 -1.86499e-14 0)
(5.38384 5.4006e-14 0)
(5.38384 1.09276e-13 0)
(5.38384 1.10569e-13 0)
(5.38384 9.37295e-14 0)
(5.38384 5.44594e-14 0)
(5.38384 2.85116e-14 0)
(5.38384 1.80631e-14 0)
(5.38384 7.49029e-14 0)
(5.38384 1.58659e-13 0)
(5.38384 4.83417e-15 0)
(5.38384 -3.71731e-15 0)
(5.38384 1.39991e-14 0)
(5.38384 -1.54927e-14 0)
(5.38384 -7.3556e-14 0)
(5.38384 -8.85253e-14 0)
(5.38384 -1.54893e-14 0)
(5.38384 4.8045e-14 0)
(5.38384 7.10356e-14 0)
(5.38384 6.40144e-14 0)
(5.38384 -6.21107e-15 0)
(5.38384 -5.80134e-14 0)
(5.38384 -1.56997e-13 0)
(5.38384 -9.88971e-14 0)
(5.38384 -4.60413e-15 0)
(5.38384 3.68597e-14 0)
(5.38384 4.08537e-14 0)
(5.38384 1.57027e-15 0)
(5.38384 1.1302e-15 0)
(5.38384 9.13924e-14 0)
(5.38384 1.22608e-13 0)
(5.38384 1.50003e-13 0)
(5.38384 2.07509e-13 0)
(5.38384 2.77415e-13 0)
(5.38384 2.40308e-13 0)
(5.38384 1.9551e-13 0)
(5.38384 1.62848e-13 0)
(5.38384 1.59278e-13 0)
(5.38384 8.18508e-14 0)
(5.38384 -3.73731e-14 0)
(5.38384 -6.33043e-14 0)
(5.38384 -5.43827e-14 0)
(5.38384 -3.24823e-14 0)
(5.38384 -8.96822e-15 0)
(5.38384 1.67662e-14 0)
(5.38384 5.22324e-14 0)
(5.38384 -8.99822e-15 0)
(5.38384 -1.54693e-15 0)
(5.38384 2.42375e-14 0)
(5.38384 6.77915e-14 0)
(5.38384 -8.26809e-15 0)
(5.38384 1.87032e-15 0)
(5.38384 -3.49994e-14 0)
(5.38384 -5.77866e-14 0)
(5.38384 -6.34643e-14 0)
(5.38384 -5.16356e-14 0)
(5.38384 -4.05937e-14 0)
(5.38384 9.91271e-14 0)
(5.38384 1.53116e-13 0)
(5.38384 1.17067e-13 0)
(5.38384 6.72816e-14 0)
(5.38384 1.1324e-13 0)
(5.38384 9.19625e-14 0)
(5.38384 7.41561e-14 0)
(5.38384 6.2044e-14 0)
(5.38384 1.15157e-13 0)
(5.38384 1.25742e-13 0)
(5.38384 1.19001e-13 0)
(5.38384 1.3525e-13 0)
(5.38384 1.60988e-13 0)
(5.38384 1.02314e-13 0)
(5.38384 5.28858e-14 0)
(5.38384 2.09236e-14 0)
(5.38384 2.24039e-14 0)
(5.38384 2.87183e-14 0)
(5.38384 4.57079e-14 0)
(5.38384 -4.76082e-15 0)
(5.38384 -1.69696e-15 0)
(5.38384 4.89418e-15 0)
(5.38384 1.57227e-14 0)
(5.38384 1.76864e-14 0)
(5.38384 1.66462e-14 0)
(5.38384 -3.69731e-15 0)
(5.38384 -1.05185e-14 0)
(5.38384 2.85083e-14 0)
(5.38384 1.00124e-13 0)
(5.38384 8.69784e-14 0)
(5.38384 9.93305e-14 0)
(5.38384 9.80236e-14 0)
(5.38384 3.94735e-14 0)
(5.38384 -6.23774e-15 0)
(5.38384 -9.8517e-15 0)
(5.38384 -3.21189e-14 0)
(5.38384 -2.08869e-14 0)
(5.38384 2.98652e-14 0)
(5.38384 3.69997e-14 0)
(5.38384 2.69013e-14 0)
(5.38384 6.57914e-14 0)
(5.38384 8.73184e-14 0)
(5.38384 9.8437e-14 0)
(5.38384 1.49169e-13 0)
(5.38384 2.18031e-13 0)
(5.38384 1.98968e-13 0)
(5.38384 1.65509e-13 0)
(5.38384 7.3566e-14 0)
(5.38384 3.78432e-14 0)
(5.38384 5.22757e-14 0)
(5.38384 1.18771e-13 0)
(5.38384 1.49152e-13 0)
(5.38384 2.21152e-13 0)
(5.38384 1.86676e-13 0)
(5.38384 1.69129e-13 0)
(5.38384 1.20561e-13 0)
(5.38384 1.27642e-13 0)
(5.38384 1.61508e-13 0)
(5.38384 2.1456e-13 0)
(5.38384 1.3657e-13 0)
(5.38384 -5.82901e-14 0)
(5.38384 -8.11007e-14 0)
(5.38384 -3.24623e-14 0)
(5.38384 -2.79115e-14 0)
(5.38384 -3.43159e-14 0)
(5.38384 -7.5183e-14 0)
(5.38384 -1.66555e-13 0)
(5.38384 -9.84203e-14 0)
(5.38384 2.44309e-14 0)
(5.38384 7.69233e-14 0)
(5.38384 4.44443e-14 0)
(5.38384 -1.39824e-14 0)
(5.38384 -5.12832e-14 0)
(5.38384 1.67396e-14 0)
(5.38384 1.48392e-14 0)
(5.38384 3.15021e-14 0)
(5.38384 5.10121e-14 0)
(5.38384 2.72214e-14 0)
(5.38384 -1.89366e-15 0)
(5.38384 -2.34707e-14 0)
(5.38384 -5.68598e-14 0)
(5.38384 -1.85332e-14 0)
(5.38384 8.61815e-15 0)
(5.38384 3.57728e-14 0)
(5.38384 5.40527e-14 0)
(5.38384 6.31909e-14 0)
(5.38384 8.55448e-14 0)
(5.38384 9.62133e-14 0)
(5.38384 9.20226e-14 0)
(5.38384 1.3401e-13 0)
(5.38384 1.183e-13 0)
(5.38384 7.23192e-14 0)
(5.38384 2.6918e-14 0)
(5.38384 3.1092e-14 0)
(5.38384 1.07352e-14 0)
(5.38384 -4.47744e-15 0)
(5.38384 1.39657e-14 0)
(5.38384 7.8867e-14 0)
(5.38384 1.35407e-13 0)
(5.38384 2.22782e-13 0)
(5.38384 1.60308e-13 0)
(5.38384 2.58445e-14 0)
(5.38384 -6.21007e-14 0)
(5.38384 -1.48182e-13 0)
(5.38384 -1.92277e-13 0)
(5.38384 -2.19801e-13 0)
(5.38384 -2.13634e-13 0)
(5.38384 -1.70269e-13 0)
(5.38384 -9.04356e-14 0)
(5.38384 -5.35893e-14 0)
(5.38384 -2.96084e-14 0)
(5.38384 6.00104e-15 0)
(5.38384 -5.68435e-14 0)
(5.38384 1.09486e-14 0)
(5.38384 3.83533e-14 0)
(5.38384 4.41176e-14 0)
(5.38384 3.6523e-14 0)
(5.38384 7.17457e-15 0)
(5.38384 1.47792e-14 0)
(5.38384 2.35774e-14 0)
(5.38384 -3.4506e-14 0)
(5.38384 -6.56547e-14 0)
(5.38384 -7.93004e-14 0)
(5.38384 -1.55387e-13 0)
(5.38384 -2.00358e-13 0)
(5.38384 -1.97724e-13 0)
(5.38384 -1.79791e-13 0)
(5.38384 -5.776e-14 0)
(5.38384 -1.41791e-14 0)
(5.38384 9.72835e-15 0)
(5.38384 -1.40184e-13 0)
(5.38384 -1.85642e-13 0)
(5.38384 -2.22228e-13 0)
(5.38384 -1.98878e-13 0)
(5.38384 -2.01208e-13 0)
(5.38384 -2.16241e-13 0)
(5.38384 -2.16547e-13 0)
(5.38384 -1.99935e-13 0)
(5.38384 -1.85225e-13 0)
(5.38384 -1.43275e-13 0)
(5.38384 -1.58904e-13 0)
(5.38384 -1.9436e-13 0)
(5.38384 -1.77291e-13 0)
(5.38384 -1.47192e-13 0)
(5.38384 -1.45802e-13 0)
(5.38384 -1.13446e-13 0)
(5.38384 -2.05335e-14 0)
(5.38384 7.28459e-15 0)
(5.38384 2.3104e-14 0)
(5.38384 5.82401e-14 0)
(5.38384 1.46602e-13 0)
(5.38384 3.27156e-14 0)
(5.38384 -9.00566e-14 0)
(5.38384 5.27091e-15 0)
(5.38384 -1.86799e-14 0)
(5.38384 -2.48376e-14 0)
(5.38384 -2.30006e-14 0)
(5.38384 1.96967e-14 0)
(5.38384 1.93167e-14 0)
(5.38384 1.53693e-15 0)
(5.38384 -5.74633e-14 0)
(5.38384 -6.10439e-14 0)
(5.38384 -6.5888e-14 0)
(5.38384 -1.23151e-13 0)
(5.38384 -1.76164e-13 0)
(5.38384 -2.27879e-13 0)
(5.38384 -2.31787e-13 0)
(5.38384 -1.99965e-13 0)
(5.38384 -1.74513e-13 0)
(5.38384 -2.1267e-13 0)
(5.38384 -2.5035e-13 0)
(5.38384 -2.64686e-13 0)
(5.38384 -2.42525e-13 0)
(5.38384 -2.09963e-13 0)
(5.38384 -2.44115e-13 0)
(5.38384 -2.95978e-13 0)
(5.38384 -3.16501e-13 0)
(5.38384 -3.84836e-13 0)
(5.38384 -4.14348e-13 0)
(5.38384 -4.52498e-13 0)
(5.38384 -4.56912e-13 0)
(5.38384 -4.4118e-13 0)
(5.38384 -3.91808e-13 0)
(5.38384 -3.16918e-13 0)
(5.38384 -2.73277e-13 0)
(5.38384 -2.47139e-13 0)
(5.38384 -1.67089e-13 0)
(5.38384 -1.1677e-13 0)
(5.38384 -8.91221e-14 0)
(5.38384 -6.33376e-14 0)
(5.38384 5.10088e-15 0)
(5.38384 -3.76298e-14 0)
(5.38384 -1.06076e-13 0)
(5.38384 -1.50626e-14 0)
(5.38384 -3.39125e-14 0)
(5.38384 -3.17955e-14 0)
(5.38384 -3.85933e-14 0)
(5.38384 -3.89734e-14 0)
(5.38384 -8.53714e-14 0)
(5.38384 -1.54163e-13 0)
(5.38384 -1.54263e-13 0)
(5.38384 -1.3361e-13 0)
(5.38384 -1.11876e-13 0)
(5.38384 -6.26575e-14 0)
(5.38384 -6.27675e-14 0)
(5.38384 -4.68881e-14 0)
(5.38384 -1.28889e-14 0)
(5.38384 -3.38592e-14 0)
(5.38384 -6.3591e-14 0)
(5.38384 -3.79099e-14 0)
(5.38384 -3.16521e-14 0)
(5.38384 -7.9167e-14 0)
(5.38384 -1.57877e-13 0)
(5.38384 -2.77151e-13 0)
(5.38384 -2.85576e-13 0)
(5.38384 -3.13004e-13 0)
(5.38384 -4.18182e-13 0)
(5.38384 -4.89084e-13 0)
(5.38384 -5.35896e-13 0)
(5.38384 -5.06734e-13 0)
(5.38384 -4.55509e-13 0)
(5.38384 -3.63566e-13 0)
(5.38384 -3.18855e-13 0)
(5.38384 -2.95958e-13 0)
(5.38384 -2.77475e-13 0)
(5.38384 -2.13287e-13 0)
(5.38384 -1.47879e-13 0)
(5.38384 -1.64515e-13 0)
(5.38384 -1.57597e-13 0)
(5.38384 -1.40378e-13 0)
(5.38384 -1.331e-13 0)
(5.38384 -7.19958e-14 0)
(5.38384 -7.77859e-14 0)
(5.38384 -1.04785e-14 0)
(5.38384 -6.48112e-15 0)
(5.38384 -2.01868e-14 0)
(5.38384 -2.66246e-14 0)
(5.38384 -2.34941e-14 0)
(5.38384 3.37392e-15 0)
(5.38384 -1.72863e-14 0)
(5.38384 -7.42295e-14 0)
(5.38384 -1.16947e-13 0)
(5.38384 -1.17974e-13 0)
(5.38384 -4.4121e-14 0)
(5.38384 -2.18704e-14 0)
(5.38384 8.43146e-15 0)
(5.38384 5.66898e-14 0)
(5.38384 4.97719e-14 0)
(5.38384 1.77864e-14 0)
(5.38384 -7.62798e-15 0)
(5.38384 2.92717e-15 0)
(5.38384 -2.01701e-15 0)
(5.38384 -4.05003e-14 0)
(5.38384 -5.26091e-14 0)
(5.38384 1.25688e-15 0)
(5.38384 2.12937e-14 0)
(5.38384 -2.3054e-14 0)
(5.38384 -1.51373e-13 0)
(5.38384 -3.4804e-13 0)
(5.38384 -3.66443e-13 0)
(5.38384 -3.23783e-13 0)
(5.38384 -3.20635e-13 0)
(5.38384 -3.2797e-13 0)
(5.38384 -2.18424e-13 0)
(5.38384 -1.46122e-13 0)
(5.38384 -1.1587e-13 0)
(5.38384 -1.20661e-13 0)
(5.38384 -1.93517e-13 0)
(5.38384 -2.58931e-13 0)
(5.38384 -3.08643e-13 0)
(5.38384 -3.27447e-13 0)
(5.38384 -3.20832e-13 0)
(5.38384 -2.7941e-13 0)
(5.38384 1.10952e-14 0)
(5.38384 1.69063e-14 0)
(5.38384 -4.32075e-15 0)
(5.38384 -2.96051e-15 0)
(5.38384 6.0067e-14 0)
(5.38384 1.1434e-13 0)
(5.38384 1.1783e-13 0)
(5.38384 7.66266e-14 0)
(5.38384 3.07586e-14 0)
(5.38384 2.76548e-14 0)
(5.38384 5.06387e-14 0)
(5.38384 5.66131e-14 0)
(5.38384 5.49362e-14 0)
(5.38384 3.78232e-14 0)
(5.38384 -9.30494e-15 0)
(5.38384 -2.00868e-14 0)
(5.38384 -7.1419e-14 0)
(5.38384 -1.70216e-13 0)
(5.38384 -5.39293e-14 0)
(5.38384 -3.08287e-14 0)
(5.38384 9.00822e-15 0)
(5.38384 6.88652e-14 0)
(5.38384 7.4993e-14 0)
(5.38384 7.55364e-14 0)
(5.38384 6.61481e-14 0)
(5.38384 -4.35975e-14 0)
(5.38384 -6.60747e-14 0)
(5.38384 -6.98087e-14 0)
(5.38384 -1.14913e-13 0)
(5.38384 -1.21234e-13 0)
(5.38384 -8.75618e-14 0)
(5.38384 -7.8907e-14 0)
(5.38384 -6.9732e-14 0)
(5.38384 -8.15074e-14 0)