/*--------------------------------*- C++ -*----------------------------------*\
| =========                 |                                                 |
| \\      /  F ield         | OpenFOAM: The Open Source CFD Toolbox           |
|  \\    /   O peration     | Version:  2206                                  |
|   \\  /    A nd           | Website:  www.openfoam.com                      |
|    \\/     M anipulation  |                                                 |
\*---------------------------------------------------------------------------*/
FoamFile
{
    version     2.0;
    format      ascii;
    arch        "LSB;label=32;scalar=64";
    class       volScalarField;
    location    "0.16";
    object      T;
}
// * * * * * * * * * * * * * * * * * * * * * * * * * * * * * * * * * * * * * //

dimensions      [0 0 0 1 0 0 0];

internalField   nonuniform List<scalar> 
4800
(
1
1
1
1
1
1
1
1
1
1
1
1
1
1
1
1
1
1
1
1
1
1
1
1
1
1
1
1
1
1
1
1
1
1
1
1
1
1
1
1
1
1
1
1
1
1
1
1
1
1
1
1
1
1
1
1
1
1
1
1
1
1
1
1
1
1
1
1
1
1
1
1
1
1
1
1
1
1
1
1
1
1
1
1
1
1
1
1
1
1
1
1
1
1
1
1
1
1
1
1
1
1
1
1
1
1
1
1
1
1
1
1
1
1
1
1
1
1
1
1
1
1
1
1
1
1
1
1
1
1
1
1
1
1
1
1
1
1
1
1
1
1
1
1
1
1
1
1
1
1
1
1
1
1
1
1
1
1
1
1
1
1
1
1
1
1
1
1
1
1
1
1
1
1
1
1
1
1
1
1
1
1
1
1
1
1
1
1
1
1
1
1
1
1
1
1
1
1
1
1
1
1
1
1
1
1
1
1
1
1
1
1
1
1
1
1
1
1
1
1
1
1
1
1
1
1
1
1
1
1
1
1
1
1
1
1
1
1
1
1
1
1
1
1
1
1
1
1
1
1
1
1
1
1
1
1
1
1
1
1
1
1
1
1
1
1
1
1
1
1
1
1
1
1
1
1
1
1
1
1
1
1
1
1
1
1
1
1
1
1
1
1
1
1
1
1
1
1
1
1
1
1
1
1
1
1
1
1
1
1
1
1
1
1
1
1
1
1
1
1
1
1
1
1
1
1
1
1
1
1
1
1
1
1
1
1
1
1
1
1
1
1
1
1
1
1
1
1
1
1
1
1
1
1
1
1
1
1
1
1
1
1
1
1
1
1
1
1
1
1
1
1
1
1
1
1
1
1
1
1
1
1
1
1
1
1
1
1
1
1
1
1
1
1
1
1
1
1
1
1
1
1
1
1
1
1
1
1
1
1
1
1
1
1
1
1
1
1
1
1
1
1
1
1
1
1
1
1
1
1
1
1
1
1
1
1
1
1
1
1
1
1
1
1
1
1
1
1
1
1
1
1
1
1
1
1
1
1
1
1
1
1
1
1
1
1
1
1
1
1
1
1
1
1
1
1
1
1
1
1
1
1
1
1
1
1
1
1
1
1
1
1
1
1
1
1
1
1
1
1
1
1
1
1
1
1
1
1
1
1
1
1
1
1
1
1
1
1
1
1
1
1
1
1
1
1
1
1
1
1
1
1
1
1
1
1
1
1
1
1
1
1
1
1
1
1
1
1
1
1
1
1
1
1
1
1
1
1
1
1
1
1
1
1
1
1
1
1
1
1
1
1
1
1
1
1
1
1
1
1
1
1
1
1
1
1
1
1
1
1
1
1
1
1
1
1
1
1
1
1
1
1
1
1
1
1
1
1
1
1
1
1
1
1
1
1
1
1
1
1
1
1
1
1
1
1
1
1
1
1
1
1
1
1
1
1
1
1
1
1
1
1
1
1
1
1
1
1
1
1
1
1
1
1
1
1
1
1
1
1
1
1
1
1
1
1
1
1
1
1
1
1
1
1
1
1
1
1
1
1
1
1
1
1
1
1
1
1
1
1
1
1
1
1
1
1
1
1
1
1
1
1
1
1
1
1
1
1
1
1
1
1
1
1
1
1
1
1
1
1
1
1
1
1
1
1
1
1
1
1
1
1
1
1
1
1
1
1
1
1
1
1
1
1
1
1
1
1
1
1
1
1
1
1
1
1
1
1
1
1
1
1
1
1
1
1
1
1
1
1
1
1
1
1
1
1
1
1
1
1
1
1
1
1
1
1
1
1
1
1
1
1
1
1
1
1
1
1
1
1
1
1
1
1
1
1
1
1
1
1
1
1
1
1
1
1
1
1
1
1
1
1
1
1
1
1
1
1
1
1
1
1
1
1
1
1
1
1
1
1
1
1
1
1
1
1
1
1
1
1
1
1
1
1
1
1
1
1
1
1
1
1
1
1
1
1
1
1
1
1
1
1
1
1
1
1
1
1
1
1
1
1
1
1
1
1
1
1
1
1
1
1
1
1
1
1
1
1
1
1
1
1
1
1
1
1
1
1
1
1
1
1
1
1
1
1
1
1
1
1
1
1
1
1
1
1
1
1
1
1
1
1
1
1
1
1
1
1
1
1
1
1
1
1
1
1
1
1
1
1
1
1
1
1
1
1
1
1
1
1
1
1
1
1
1
1
1
1
1
1
1
1
1
1
1
1
1
1
1
1
1
1
1
1
1
1
1
1
1
1
1
1
1
1
1
1
1
1
1
1
1
1
1
1
1
1
1
1
1
1
1
1
1
1
1
1
1
1
1
1
1
1
1
1
1
1
1
1
1
1
1
1
1
1
1
1
1
1
1
1
1
1
1
1
1
1
1
1
1
1
1
1
1
1
1
1
1
1
1
1
1
1
1
1
1
1
1
1
1
1
1
1
1
1
1
1
1
1
1
1
1
1
1
1
1
1
1
1
1
1
1
1
1
1
1
1
1
1
1
1
1
1
1
1
1
1
1
1
1
1
1
1
1
1
1
1
1
1
1
1
1
1
1
1
1
1
1
1
1
1
1
1
1
1
1
1
1
1
1
1
1
1
1
1
1
1
1
1
1
1
1
1
1
1
1
1
1
1
1
1
1
1
1
1
1
1
1
1
1
1
1
1
1
1
1
1
1
1
1
1
1
1
1
1
1
1
1
1
1
1
1
1
1
1
1
1
1
1
1
1
1
1
1
1
1
1
1
1
1
1
1
1
1
1
1
1
1
1
1
1
1
1
1
1
1
1
1
1
1
1
1
1
1
1
1
1
1
1
1
1
1
1
1
1
1
1
1
1
1
1
1
1
1
1
1
1
1
1
1
1
1
1
1
1
1
1
1
1
1
1
1
1
1
1
1
1
1
1
1
1
1
1
1
1
1
1
1
1
1
1
1
1
1
1
1
1
1
1
1
1
1
1
1
1
1
1
1
1
1
1
1
1
1
1
1
1
1
1
1
1
1
1
1
1
1
1
1
1
1
1
1
1
1
1
1
1
1
1
1
1
1
1
1
1
1
1
1
1
1
1
1
1
1
1
1
1
1
1
1
1
1
1
1
1
1
1
1
1
1
1
1
1
1
1
1
1
1
1
1
1
1
1
1
1
1
1
1
1
1
1
1
1
1
1
1
1
1
1
1
1
1
1
1
1
1
1
1
1
1
1
1
1
1
1
1
1
1
1
1
1
1
1
1
1
1
1
1
1
1
1
1
1
1
1
1
1
1
1
1
1
1
1
1
1
1
1
1
1
1
1
1
1
1
1
1
1
1
1
1
1
1
1
1
1
1
1
1
1
1
1
1
1
1
1
1
1
1
1
1
1
1
1
1
1
1
1
1
1
1
1
1
1
1
1
1
1
1
1
1
1
1
1
1
1
1
1
1
1
1
1
1
1
1
1
1
1
1
1
1
1
1
1
1
1
1
1
1
1
1
1
1
1
1
1
1
1
1
1
1
1
1
1
1
1
1
1
1
1
1
1
1
1
1
1
1
1
1
1
1
1
1
1
1
1
1
1
1
1
1
1
1
1
1
1
1
1
1
1
1
1
1
1
1
1
1
1
1
1
1
1
1
1
1
1
1
1
1
1
1
1
1.07023
1.16248
1.25526
1.35133
1.46121
1.55329
1.61863
1.69264
1.80801
1.89456
1.92536
1.9542
2.00701
2.04874
2.04885
2.03599
2.021
2.00462
1.97275
1.91788
1.85248
1.83088
1.81722
1.79221
1.7781
1.7804
1.78678
1.79062
1.79437
1.79833
1.80736
1.82344
1.83211
1.83263
1.83099
1.82887
1.82879
1.8311
1.8344
1.83554
1.83693
1.84184
1.8476
1.84951
1.84949
1.84773
1.84223
1.83466
1.83222
1.83258
1.83557
1.84197
1.84911
1.85273
1.85365
1.8533
1.85134
1.84837
1.84366
1.83896
1.83651
1.83635
1.83827
1.84342
1.85125
1.85734
1.85998
1.86016
1.85827
1.85274
1.84687
1.84386
1.84273
1.84239
1.8428
1.84427
1.84637
1.84955
1.85405
1.85907
1
1
0.999984
0.99953
0.999443
1.03651
1.1123
1.15256
1.21131
1.32918
1.4412
1.48469
1.53849
1.6282
1.68009
1.71468
1.74874
1.79045
1.79592
1.8115
1.84926
1.88395
1.8916
1.88463
1.86728
1.85886
1.8571
1.85084
1.84322
1.82879
1.82711
1.82935
1.83174
1.83187
1.83101
1.83211
1.8361
1.84093
1.84362
1.84338
1.84244
1.84252
1.84451
1.84805
1.85018
1.85044
1.84864
1.8472
1.84662
1.84716
1.84817
1.84784
1.84702
1.84732
1.84962
1.85234
1.85345
1.85298
1.85227
1.85159
1.8502
1.84828
1.84789
1.84899
1.85011
1.85147
1.85396
1.85544
1.85546
1.85414
1.85287
1.85308
1.85358
1.85444
1.85487
1.85423
1.85339
1.853
1.85306
1.85399
1
1
1
1
0.999999
1
0.999999
1
1
0.99958
1.00118
1.01248
1.03479
1.12191
1.24593
1.35276
1.48946
1.63578
1.81852
1.88546
1.93797
1.97893
1.97642
1.96639
1.95039
1.93677
1.92645
1.91443
1.88841
1.86055
1.84777
1.84947
1.85026
1.85009
1.85065
1.85323
1.85987
1.86548
1.86555
1.86454
1.86258
1.85944
1.8579
1.85777
1.85867
1.86228
1.86658
1.86754
1.86792
1.86815
1.86751
1.86482
1.86
1.85641
1.85557
1.85614
1.86045
1.8668
1.86928
1.86919
1.86818
1.86579
1.86247
1.86035
1.85834
1.85706
1.85597
1.85544
1.85614
1.859
1.86306
1.86623
1.86827
1.86928
1.86907
1.86729
1.8641
1.86198
1.85937
1.85695
1
1
1
1
1
1
1
1
1
1
1
1
1
1
1
0.999415
1.01061
1.0633
1.23147
1.48037
1.62853
1.76704
1.85295
1.89003
1.93038
1.93045
1.92769
1.9282
1.93112
1.9274
1.91776
1.9098
1.903
1.89553
1.89371
1.89148
1.88903
1.88712
1.88399
1.87994
1.87574
1.87397
1.87444
1.87545
1.87685
1.88048
1.88674
1.8917
1.89386
1.89422
1.89243
1.88661
1.87679
1.87037
1.8696
1.86983
1.87222
1.87828
1.88511
1.88809
1.8883
1.88619
1.88173
1.87649
1.87287
1.8703
1.86825
1.86675
1.86641
1.86728
1.87011
1.87559
1.88115
1.88334
1.88295
1.88035
1.87585
1.87013
1.8648
1.86201
1
1
1
1
1
1
1
1
1
1
1
1
1
1
1
1
1
1
0.999662
1.0022
1.02525
1.09924
1.32105
1.50954
1.65607
1.7747
1.85883
1.95723
1.97533
1.97735
1.97551
1.96717
1.95572
1.94085
1.92539
1.90825
1.9012
1.90315
1.90503
1.90351
1.89831
1.89372
1.89272
1.8923
1.89291
1.89473
1.89782
1.90176
1.90568
1.90836
1.90842
1.90443
1.89816
1.89462
1.89195
1.88975
1.88906
1.89064
1.89447
1.89839
1.90057
1.90086
1.89894
1.89398
1.88987
1.88791
1.88669
1.88478
1.88273
1.88185
1.8825
1.88457
1.88763
1.89049
1.89134
1.8905
1.8867
1.88155
1.8787
1.8766
1
1
1
1
1
1
1
1
1
1
1
1
1
1
1
1
1
1
1
1
1
1
0.99945
1.00495
1.03993
1.19793
1.37263
1.54911
1.70082
1.80346
1.90135
1.91778
1.9233
1.91928
1.90824
1.91264
1.91609
1.9209
1.92806
1.92789
1.92455
1.91934
1.91414
1.90846
1.90185
1.89903
1.89899
1.90013
1.90313
1.90733
1.91308
1.91543
1.91594
1.91604
1.91457
1.90891
1.90389
1.90342
1.90393
1.9043
1.90457
1.90496
1.90542
1.90623
1.90746
1.90794
1.90771
1.9066
1.90323
1.89888
1.89774
1.89764
1.89691
1.89581
1.89476
1.89413
1.89429
1.89514
1.89553
1.89398
1
1
1
1
1
1
1
1
1
1
1
1
1
1
1
1
1
1
1
1
1
1
1
1
1
0.999998
0.999392
1.01315
1.11479
1.24735
1.43073
1.60433
1.7436
1.86032
1.8914
1.91777
1.92928
1.92693
1.92793
1.93109
1.93095
1.92808
1.92031
1.91311
1.90689
1.90185
1.89842
1.89735
1.89807
1.90046
1.90683
1.91631
1.92042
1.92061
1.9204
1.91962
1.91495
1.9084
1.90579
1.90504
1.90447
1.90412
1.90485
1.90846
1.91512
1.9204
1.9215
1.9209
1.91829
1.91371
1.90685
1.90297
1.90193
1.90026
1.89893
1.89893
1.90014
1.9023
1.905
1.9067
1
1
1
1
1
1
1
1
1
1
1
1
1
1
1
1
1
1
1
1
1
1
1
1
1
1
1
1
1
0.99957
1.00304
1.06271
1.16282
1.34344
1.54927
1.70295
1.80463
1.8266
1.85249
1.86924
1.8858
1.90265
1.91368
1.92002
1.91962
1.91511
1.90732
1.89949
1.89455
1.89498
1.89807
1.90303
1.90855
1.91383
1.91738
1.91848
1.91938
1.91716
1.9122
1.90841
1.906
1.90505
1.90502
1.90625
1.91125
1.91927
1.92439
1.92459
1.92208
1.91769
1.91469
1.91183
1.90844
1.90613
1.90487
1.90504
1.90555
1.90567
1.9063
1.90952
1
1
1
1
1
1
1
1
1
1
1
1
1
1
1
1
1
1
1
1
1
1
1
1
1
1
1
1
1
1
1
1
0.999734
1.00056
1.03515
1.11173
1.281
1.47684
1.60964
1.71711
1.78906
1.858
1.89235
1.9063
1.90787
1.90673
1.90322
1.89766
1.89266
1.88885
1.88844
1.88886
1.89044
1.89349
1.90029
1.90897
1.91458
1.91781
1.91836
1.9172
1.91311
1.9069
1.9032
1.90392
1.90759
1.91162
1.91364
1.91435
1.91373
1.91397
1.91557
1.91739
1.91741
1.91594
1.91334
1.91054
1.90908
1.90922
1.91025
1.91102
1
1
1
1
1
1
1
1
1
1
1
1
1
1
1
1
1
1
1
1
1
1
1
1
1
1
1
1
1
1
1
1
1
1
1
0.999861
0.99996
1.01698
1.05789
1.22625
1.43535
1.59372
1.69884
1.76059
1.82597
1.86147
1.87579
1.88466
1.89811
1.89729
1.88867
1.87766
1.87498
1.87767
1.88252
1.88887
1.89821
1.90563
1.90947
1.91195
1.91267
1.91163
1.90741
1.9045
1.90406
1.90379
1.90308
1.90128
1.90104
1.90235
1.90707
1.91316
1.91587
1.91624
1.91672
1.91697
1.91634
1.91417
1.91069
1.90876
1
1
1
1
1
1
1
1
1
1
1
1
1
1
1
1
1
1
1
1
1
1
1
1
1
1
1
1
1
1
1
1
1
1
1
1
1
1
0.999913
0.999918
1.01144
1.05898
1.22559
1.38898
1.53673
1.66617
1.75853
1.83997
1.87795
1.88294
1.88097
1.87896
1.87495
1.87105
1.87025
1.87253
1.87493
1.87783
1.8855
1.89602
1.9025
1.90352
1.90443
1.90682
1.90746
1.90572
1.89991
1.8923
1.89086
1.89229
1.8966
1.90266
1.90882
1.91257
1.91334
1.91374
1.91402
1.9138
1.91227
1.90813
1
1
1
1
1
1
1
1
1
1
1
1
1
1
1
1
1
1
1
1
1
1
1
1
1
1
1
1
1
1
1
1
1
1
1
1
1
1
1
1
1
0.999954
1.00016
1.00602
1.0463
1.2237
1.40685
1.56167
1.66404
1.77264
1.85014
1.86602
1.8655
1.86941
1.87328
1.86765
1.86022
1.8581
1.85996
1.86669
1.87561
1.8848
1.89054
1.89431
1.89923
1.90201
1.90144
1.89601
1.88711
1.88461
1.88654
1.8927
1.89745
1.89932
1.90093
1.90334
1.90651
1.90753
1.90635
1.90682
1
1
1
1
1
1
1
1
1
1
1
1
1
1
1
1
1
1
1
1
1
1
1
1
1
1
1
1
1
1
1
1
1
1
1
1
1
1
1
1
1
1
1
1
0.999891
1.0005
1.00962
1.07665
1.24111
1.40596
1.59301
1.7038
1.79052
1.84126
1.86224
1.86393
1.8645
1.85814
1.85259
1.85247
1.85519
1.85961
1.86065
1.86718
1.88176
1.89223
1.89296
1.8906
1.89009
1.89057
1.89153
1.89181
1.89029
1.88809
1.88789
1.88938
1.89236
1.89482
1.8966
1.90023
1
1
1
1
1
1
1
1
1
1
1
1
1
1
1
1
1
1
1
1
1
1
1
1
1
1
1
1
1
1
1
1
1
1
1
1
1
1
1
1
1
1
1
1
1
1
1
0.999862
1.00103
1.01219
1.11757
1.31518
1.46806
1.59026
1.72085
1.83676
1.86022
1.8582
1.8609
1.86888
1.86366
1.85192
1.84575
1.84758
1.8569
1.86709
1.87391
1.87655
1.87844
1.88245
1.88816
1.89207
1.89165
1.88619
1.87996
1.879
1.88022
1.88333
1.88523
1.88913
1
1
1
1
1
1
1
1
1
1
1
1
1
1
1
1
1
1
1
1
1
1
1
1
1
1
1
1
1
1
1
1
1
1
1
1
1
1
1
1
1
1
1
1
1
1
1
0.999999
0.999999
0.999993
0.999996
1.00364
1.03109
1.16103
1.33343
1.55728
1.69861
1.79422
1.83987
1.85419
1.85829
1.85916
1.85675
1.85071
1.85023
1.85169
1.85455
1.85417
1.85287
1.86177
1.87882
1.88523
1.88415
1.881
1.88093
1.88094
1.87967
1.87777
1.87667
1.87944
1
1
1
1
1
1
1
1
1
1
1
1
1
1
1
1
1
1
1
1
1
1
1
1
1
1
1
1
1
1
1
1
1
1
1
1
1
1
1
1
1
1
1
1
1
1
1
1
1
1
1
1
0.99995
1.00047
1.00696
1.09106
1.33012
1.51994
1.61226
1.71547
1.82487
1.8626
1.86151
1.86369
1.87291
1.86959
1.85807
1.84556
1.84305
1.84897
1.86045
1.86886
1.8698
1.87033
1.87174
1.87447
1.87735
1.8792
1.87815
1.87837
1
1
1
1
1
1
1
1
1
1
1
1
1
1
1
1
1
1
1
1
1
1
1
1
1
1
1
1
1
1
1
1
1
1
1
1
1
1
1
1
1
1
1
1
1
1
1
1
1
1
1
1
0.999999
0.999999
0.999983
1.0001
1.00746
1.05096
1.18992
1.35203
1.57999
1.73419
1.80539
1.84812
1.86346
1.86231
1.8603
1.85796
1.85656
1.85658
1.85836
1.85681
1.85493
1.85186
1.85237
1.86109
1.87347
1.87573
1.87554
1.8771
1
1
1
1
1
1
1
1
1
1
1
1
1
1
1
1
1
1
1
1
1
1
1
1
1
1
1
1
1
1
1
1
1
1
1
1
1
1
1
1
1
1
1
1
1
1
1
1
1
1
1
1
1
1
0.999999
0.999999
1
0.999972
1.0014
1.01171
1.12873
1.41859
1.63924
1.7025
1.77049
1.83267
1.8606
1.86492
1.86931
1.87794
1.87926
1.87087
1.85575
1.84527
1.84545
1.85434
1.86238
1.86509
1.86728
1.87141
1
1
1
1
1
1
1
1
1
1
1
1
1
1
1
1
1
1
1
1
1
1
1
1
1
1
1
1
1
1
1
1
1
1
1
1
1
1
1
1
1
1
1
1
1
1
1
1
1
1
1
1
1
1
1
1
1
0.999999
0.999999
0.999978
1.00105
1.02481
1.17077
1.3617
1.51301
1.69499
1.77904
1.81293
1.84749
1.86851
1.87078
1.86608
1.85795
1.85884
1.8619
1.86281
1.86209
1.85979
1.85782
1.8601
1
1
1
1
1
1
1
1
1
1
1
1
1
1
1
1
1
1
1
1
1
1
1
1
1
1
1
1
1
1
1
1
1
1
1
1
1
1
1
1
1
1
1
1
1
1
1
1
1
1
1
1
1
1
1
1
1
1
1
0.999999
1
0.999978
1.0014
1.01554
1.07096
1.29103
1.60857
1.75232
1.78748
1.81944
1.8518
1.85142
1.85013
1.86091
1.87546
1.88012
1.87798
1.86858
1.85963
1.85641
1
1
1
1
1
1
1
1
1
1
1
1
1
1
1
1
1
1
1
1
1
1
1
1
1
1
1
1
1
1
1
1
1
1
1
1
1
1
1
1
1
1
1
1
1
1
1
1
1
1
1
1
1
1
1
1
1
1
1
1
1
0.999999
0.999999
0.999985
1.00024
1.01015
1.12981
1.44418
1.62154
1.74121
1.81576
1.8149
1.81299
1.83293
1.85913
1.87097
1.87074
1.86297
1.86078
1.86378
1
1
1
1
1
1
1
1
1
1
1
1
1
1
1
1
1
1
1
1
1
1
1
1
1
1
1
1
1
1
1
1
1
1
1
1
1
1
1
1
1
1
1
1
1
1
1
1
1
1
1
1
1
1
1
1
1
1
1
1
1
1
1
0.999999
0.999999
0.999988
1.00148
1.04768
1.17502
1.3607
1.62383
1.80321
1.82814
1.84372
1.84772
1.85293
1.85209
1.84455
1.84786
1.86382
1
1
1
1
1
1
1
1
1
1
1
1
1
1
1
1
1
1
1
1
1
1
1
1
1
1
1
1
1
1
1
1
1
1
1
1
1
1
1
1
1
1
1
1
1
1
1
1
1
1
1
1
1
1
1
1
1
1
1
1
1
1
1
1
1
0.999999
0.999996
1.00009
1.00204
1.02531
1.14806
1.49851
1.73446
1.83004
1.85832
1.85645
1.84824
1.83817
1.83973
1.85637
1
1
1
1
1
1
1
1
1
1
1
1
1
1
1
1
1
1
1
1
1
1
1
1
1
1
1
1
1
1
1
1
1
1
1
1
1
1
1
1
1
1
1
1
1
1
1
1
1
1
1
1
1
1
1
1
1
1
1
1
1
1
1
1
1
1
1
1
0.999997
1.00002
1.00238
1.0881
1.36157
1.5667
1.74109
1.83632
1.85846
1.8601
1.86021
1.8601
1
1
1
1
1
1
1
1
1
1
1
1
1
1
1
1
1
1
1
1
1
1
1
1
1
1
1
1
1
1
1
1
1
1
1
1
1
1
1
1
1
1
1
1
1
1
1
1
1
1
1
1
1
1
1
1
1
1
1
1
1
1
1
1
1
1
1
1
1
1
0.999996
1.00102
1.02293
1.16343
1.3768
1.64329
1.78566
1.83453
1.87004
1.87143
1
1
1
1
1
1
1
1
1
1
1
1
1
1
1
1
1
1
1
1
1
1
1
1
1
1
1
1
1
1
1
1
1
1
1
1
1
1
1
1
1
1
1
1
1
1
1
1
1
1
1
1
1
1
1
1
1
1
1
1
1
1
1
1
1
1
1
1
1
1
1
0.999998
1.00003
1.00287
1.03029
1.22185
1.57258
1.74971
1.81278
1.85235
1
1
1
1
1
1
1
1
1
1
1
1
1
1
1
1
1
1
1
1
1
1
1
1
1
1
1
1
1
1
1
1
1
1
1
1
1
1
1
1
1
1
1
1
1
1
1
1
1
1
1
1
1
1
1
1
1
1
1
1
1
1
1
1
1
1
1
1
1
1
1
1
1
0.999996
1.00012
1.00842
1.1391
1.4903
1.68394
1.79998
1
1
1
1
1
1
1
1
1
1
1
1
1
1
1
1
1
1
1
1
1
1
1
1
1
1
1
1
1
1
1
1
1
1
1
1
1
1
1
1
1
1
1
1
1
1
1
1
1
1
1
1
1
1
1
1
1
1
1
1
1
1
1
1
1
1
1
1
1
1
1
1
1
1
0.999999
1.00002
1.00361
1.08779
1.2844
1.67631
1
1
1
1
1
1
1
1
1
1
1
1
1
1
1
1
1
1
1
1
1
1
1
1
1
1
1
1
1
1
1
1
1
1
1
1
1
1
1
1
1
1
1
1
1
1
1
1
1
1
1
1
1
1
1
1
1
1
1
1
1
1
1
1
1
1
1
1
1
1
1
1
1
1
1
1
0.999998
1.00124
1.01504
1.37882
1
1
1
1
1
1
1
1
1
1
1
1
1
1
1
1
1
1
1
1
1
1
1
1
1
1
1
1
1
1
1
1
1
1
1
1
1
1
1
1
1
1
1
1
1
1
1
1
1
1
1
1
1
1
1
1
1
1
1
1
1
1
1
1
1
1
1
1
1
1
1
1
1
1
1
1
1
0.999998
1.00011
1.0671
1
1
1
1
1
1
1
1
1
1
1
1
1
1
1
1
1
1
1
1
1
1
1
1
1
1
1
1
1
1
1
1
1
1
1
1
1
1
1
1
1
1
1
1
1
1
1
1
1
1
1
1
1
1
1
1
1
1
1
1
1
1
1
1
1
1
1
1
1
1
1
1
1
1
1
1
1
1
1
1.00368
1
1
1
1
1
1
1
1
1
1
1
1
1
1
1
1
1
1
1
1
1
1
1
1
1
1
1
1
1
1
1
1
1
1
1
1
1
1
1
1
1
1
1
1
1
1
1
1
1
1
1
1
1
1
1
1
1
1
1
1
1
1
1
1
1
1
1
1
1
1
1
1
1
1
1
1
1
1
1
1.00009
1
1
1
1
1
1
1
1
1
1
1
1
1
1
1
1
1
1
1
1
1
1
1
1
1
1
1
1
1
1
1
1
1
1
1
1
1
1
1
1
1
1
1
1
1
1
1
1
1
1
1
1
1
1
1
1
1
1
1
1
1
1
1
1
1
1
1
1
1
1
1
1
1
1
1
1
1
1
1
1
1
1
1
1
1
1
1
1
1
1
1
1
1
1
1
1
1
1
1
1
1
1
1
1
1
1
1
1
1
1
1
1
1
1
1
1
1
1
1
1
1
1
1
1
1
1
1
1
1
1
1
1
1
1
1
1
1
1
1
1
1
1
1
1
1
1
1
1
1
1
1
1
1
1
1
1
1
1
1
1
1
1
1
1
1
1
1
1
1
1
1
1
1
1
1
1
1
1
1
1
1
1
1
1
1
1
1
1
1
1
1
1
1
1
1
1
1
1
1
1
1
1
1
1
1
1
1
1
1
1
1
1
1
1
1
1
1
1
1
1
1
1
1
1
1
1
1
1
1
1
1
1
1
1
1
1
1
1
1
1
1
1
1
1
1
1
1
1
1
1
1
1
1
1
1
1
1
1
1
1
1
1
1
1
1
1
1
1
1
1
1
1
1
1
1
1
1
1
1
1
1
1
1
1
1
1
1
1
1
1
1
1
1
1
1
1
1
1
1
1
1
1
1
1
1
1
1
1
1
1
1
1
1
1
1
1
1
1
1
1
1
1
1
1
1
1
1
1
1
1
1
1
1
1
1
1
1
1
1
1
1
1
1
1
1
1
1
1
1
1
1
1
1
1
1
1
1
1
1
1
1
1
1
1
1
1
1
1
1
1
1
1
1
1
1
1
1
1
1
1
1
1
1
1
1
1
1
1
1
1
1
1
1
1
1
1
1
1
1
1
1
1
1
1
1
1
1
1
1
1
1
1
1
1
1
1
1
1
1
1
1
1
1
1
1
1
1
1
1
1
1
1
1
1
1
1
1
1
1
1
1
1
1
1
1
1
1
1
1
1
1
1
1
1
1
1
1
1
1
1
1
1
1
1
1
1
1
1
1
1
1
1
1
1
1
1
1
1
1
1
1
1
1
1
1
1
1
1
1
1
1
1
1
1
1
1
1
1
1
1
1
1
1
1
1
1
1
1
1
1
1
1
1
1
1
1
1
1
1
1
1
1
1
1
1
1
1
1
1
1
1
1
1
1
1
1
1
1
1
1
1
1
1
1
1
1
1
1
1
1
1
1
1
1
1
1
1
1
1
1
1
1
1
1
1
1
1
1
1
1
1
1
1
1
1
1
1
1
1
1
1
1
1
1
1
1
1
1
1
1
1
1
1
1
1
1
1
1
1
1
1
1
1
1
1
1
1
1
1
1
1
1
1
1
1
1
1
1
1
1
1
1
1
1
1
1
1
1
1
1
1
1
1
1
1
1
1
1
1
1
)
;

boundaryField
{
    inlet
    {
        type            fixedValue;
        value           uniform 1;
    }
    outlet
    {
        type            zeroGradient;
    }
    bottom
    {
        type            symmetryPlane;
    }
    top
    {
        type            symmetryPlane;
    }
    obstacle
    {
        type            zeroGradient;
    }
    defaultFaces
    {
        type            empty;
    }
}


// ************************************************************************* //
