/*--------------------------------*- C++ -*----------------------------------*\
| =========                 |                                                 |
| \\      /  F ield         | OpenFOAM: The Open Source CFD Toolbox           |
|  \\    /   O peration     | Version:  2206                                  |
|   \\  /    A nd           | Website:  www.openfoam.com                      |
|    \\/     M anipulation  |                                                 |
\*---------------------------------------------------------------------------*/
FoamFile
{
    version     2.0;
    format      ascii;
    arch        "LSB;label=32;scalar=64";
    class       volScalarField;
    location    "0.06";
    object      T;
}
// * * * * * * * * * * * * * * * * * * * * * * * * * * * * * * * * * * * * * //

dimensions      [0 0 0 1 0 0 0];

internalField   nonuniform List<scalar> 
75
(
1
1
1
1
1
1
1
1
1
1
1
1
1
1
1
1
1
1
1
1
1
1
1
1
1
1.07618
1.1808
1.28875
1.37645
1.43264
1.46771
1.49464
1.51345
1.53043
1.52387
1.00319
1.01883
1.05887
1.1215
1.1825
1.22862
1.26437
1.29734
1.32654
1.35779
1.00001
1
1.00107
1.00739
1.02626
1.06006
1.10471
1.15943
1.21627
1.32722
1
0.999998
0.999991
1.00001
1.00032
1.00209
1.00677
1.01862
1.03986
1.13741
1
1
0.999997
0.999998
0.999996
1.00001
1.00001
1.00036
1.00061
1.01222
)
;

boundaryField
{
    inlet
    {
        type            fixedValue;
        value           uniform 1;
    }
    outlet
    {
        type            zeroGradient;
    }
    bottom
    {
        type            symmetryPlane;
    }
    top
    {
        type            symmetryPlane;
    }
    obstacle
    {
        type            zeroGradient;
    }
    defaultFaces
    {
        type            empty;
    }
}


// ************************************************************************* //
