/*--------------------------------*- C++ -*----------------------------------*\
| =========                 |                                                 |
| \\      /  F ield         | OpenFOAM: The Open Source CFD Toolbox           |
|  \\    /   O peration     | Version:  2206                                  |
|   \\  /    A nd           | Website:  www.openfoam.com                      |
|    \\/     M anipulation  |                                                 |
\*---------------------------------------------------------------------------*/
FoamFile
{
    version     2.0;
    format      ascii;
    arch        "LSB;label=32;scalar=64";
    class       volScalarField;
    location    "0.16";
    object      p;
}
// * * * * * * * * * * * * * * * * * * * * * * * * * * * * * * * * * * * * * //

dimensions      [1 -1 -2 0 0 0 0];

internalField   nonuniform List<scalar> 
4800
(
1
1
1
1
1
1
1
1
1
1
1
1
1
1
1
1
1
1
1
1
1
1
1
1
1
1
1
1
1
1
1
1
1
1
1
1
1
1
1
1
1
1
1
1
1
1
1
1
1
1
1
1
1
1
1
1
1
1
1
1
1
1
1
1
1
1
1
1
1
1
1
1
1
1
1
1
1
1
1
1
1
1
1
1
1
1
1
1
1
1
1
1
1
1
1
1
1
1
1
1
1
1
1
1
1
1
1
1
1
1
1
1
1
1
1
1
1
1
1
1
1
1
1
1
1
1
1
1
1
1
1
1
1
1
1
1
1
1
1
1
1
1
1
1
1
1
1
1
1
1
1
1
1
1
1
1
1
1
1
1
1
1
1
1
1
1
1
1
1
1
1
1
1
1
1
1
1
1
1
1
1
1
1
1
1
1
1
1
1
1
1
1
1
1
1
1
1
1
1
1
1
1
1
1
1
1
1
1
1
1
1
1
1
1
1
1
1
1
1
1
1
1
1
1
1
1
1
1
1
1
1
1
1
1
1
1
1
1
1
1
1
1
1
1
1
1
1
1
1
1
1
1
1
1
1
1
1
1
1
1
1
1
1
1
1
1
1
1
1
1
1
1
1
1
1
1
1
1
1
1
1
1
1
1
1
1
1
1
1
1
1
1
1
1
1
1
1
1
1
1
1
1
1
1
1
1
1
1
1
1
1
1
1
1
1
1
1
1
1
1
1
1
1
1
1
1
1
1
1
1
1
1
1
1
1
1
1
1
1
1
1
1
1
1
1
1
1
1
1
1
1
1
1
1
1
1
1
1
1
1
1
1
1
1
1
1
1
1
1
1
1
1
1
1
1
1
1
1
1
1
1
1
1
1
1
1
1
1
1
1
1
1
1
1
1
1
1
1
1
1
1
1
1
1
1
1
1
1
1
1
1
1
1
1
1
1
1
1
1
1
1
1
1
1
1
1
1
1
1
1
1
1
1
1
1
1
1
1
1
1
1
1
1
1
1
1
1
1
1
1
1
1
1
1
1
1
1
1
1
1
1
1
1
1
1
1
1
1
1
1
1
1
1
1
1
1
1
1
1
1
1
1
1
1
1
1
1
1
1
1
1
1
1
1
1
1
1
1
1
1
1
1
1
1
1
1
1
1
1
1
1
1
1
1
1
1
1
1
1
1
1
1
1
1
1
1
1
1
1
1
1
1
1
1
1
1
1
1
1
1
1
1
1
1
1
1
1
1
1
1
1
1
1
1
1
1
1
1
1
1
1
1
1
1
1
1
1
1
1
1
1
1
1
1
1
1
1
1
1
1
1
1
1
1
1
1
1
1
1
1
1
1
1
1
1
1
1
1
1
1
1
1
1
1
1
1
1
1
1
1
1
1
1
1
1
1
1
1
1
1
1
1
1
1
1
1
1
1
1
1
1
1
1
1
1
1
1
1
1
1
1
1
1
1
1
1
1
1
1
1
1
1
1
1
1
1
1
1
1
1
1
1
1
1
1
1
1
1
1
1
1
1
1
1
1
1
1
1
1
1
1
1
1
1
1
1
1
1
1
1
1
1
1
1
1
1
1
1
1
1
1
1
1
1
1
1
1
1
1
1
1
1
1
1
1
1
1
1
1
1
1
1
1
1
1
1
1
1
1
1
1
1
1
1
1
1
1
1
1
1
1
1
1
1
1
1
1
1
1
1
1
1
1
1
1
1
1
1
1
1
1
1
1
1
1
1
1
1
1
1
1
1
1
1
1
1
1
1
1
1
1
1
1
1
1
1
1
1
1
1
1
1
1
1
1
1
1
1
1
1
1
1
1
1
1
1
1
1
1
1
1
1
1
1
1
1
1
1
1
1
1
1
1
1
1
1
1
1
1
1
1
1
1
1
1
1
1
1
1
1
1
1
1
1
1
1
1
1
1
1
1
1
1
1
1
1
1
1
1
1
1
1
1
1
1
1
1
1
1
1
1
1
1
1
1
1
1
1
1
1
1
1
1
1
1
1
1
1
1
1
1
1
1
1
1
1
1
1
1
1
1
1
1
1
1
1
1
1
1
1
1
1
1
1
1
1
1
1
1
1
1
1
1
1
1
1
1
1
1
1
1
1
1
1
1
1
1
1
1
1
1
1
1
1
1
1
1
1
1
1
1
1
1
1
1
1
1
1
1
1
1
1
1
1
1
1
1
1
1
1
1
1
1
1
1
1
1
1
1
1
1
1
1
1
1
1
1
1
1
1
1
1
1
1
1
1
1
1
1
1
1
1
1
1
1
1
1
1
1
1
1
1
1
1
1
1
1
1
1
1
1
1
1
1
1
1
1
1
1
1
1
1
1
1
1
1
1
1
1
1
1
1
1
1
1
1
1
1
1
1
1
1
1
1
1
1
1
1
1
1
1
1
1
1
1
1
1
1
1
1
1
1
1
1
1
1
1
1
1
1
1
1
1
1
1
1
1
1
1
1
1
1
1
1
1
1
1
1
1
1
1
1
1
1
1
1
1
1
1
1
1
1
1
1
1
1
1
1
1
1
1
1
1
1
1
1
1
1
1
1
1
1
1
1
1
1
1
1
1
1
1
1
1
1
1
1
1
1
1
1
1
1
1
1
1
1
1
1
1
1
1
1
1
1
1
1
1
1
1
1
1
1
1
1
1
1
1
1
1
1
1
1
1
1
1
1
1
1
1
1
1
1
1
1
1
1
1
1
1
1
1
1
1
1
1
1
1
1
1
1
1
1
1
1
1
1
1
1
1
1
1
1
1
1
1
1
1
1
1
1
1
1
1
1
1
1
1
1
1
1
1
1
1
1
1
1
1
1
1
1
1
1
1
1
1
1
1
1
1
1
1
1
1
1
1
1
1
1
1
1
1
1
1
1
1
1
1
1
1
1
1
1
1
1
1
1
1
1
1
1
1
1
1
1
1
1
1
1
1
1
1
1
1
1
1
1
1
1
1
1
1
1
1
1
1
1
1
1
1
1
1
1
1
1
1
1
1
1
1
1
1
1
1
1
1
1
1
1
1
1
1
1
1
1
1
1
1
1
1
1
1
1
1
1
1
1
1
1
1
1
1
1
1
1
1
1
1
1
1
1
1
1
1
1
1
1
1
1
1
1
1
1
1
1
1
1
1
1
1
1
1
1
1
1
1
1
1
1
1
1
1
1
1
1
1
1
1
1
1
1
1
1
1
1
1
1
1
1
1
1
1
1
1
1
1
1
1
1
1
1
1
1
1
1
1
1
1
1
1
1
1
1
1
1
1
1
1
1
1
1
1
1
1
1
1
1
1
1
1
1
1
1
1
1
1
1
1
1
1
1
1
1
1
1
1
1
1
1
1
1
1
1
1
1
1
1
1
1
1
1
1
1
1
1
1
1
1
1
1
1
1
1
1
1
1
1
1
1
1
1
1
1
1
1
1
1
1
1
1
1
1
1
1
1
1
1
1
1
1
1
1
1
1
1
1
1
1
1
1
1
1
1
1
1
1
1
1
1
1
1
1
1
1
1
1
1
1
1
1
1
1
1
1
1
1
1
1
1
1
1
1
1
1
1
1
1
1
1
1
1
1
1
1
1
1
1
1
1
1
1
1
1
1
1
1
1
1
1
1
1
1.27219
1.69497
2.15645
2.73554
3.25619
3.66424
4.12317
4.45294
4.67092
4.69548
4.60635
4.40341
4.06417
3.67386
3.49417
3.42223
3.32957
3.28057
3.2896
3.32791
3.36603
3.40378
3.43593
3.43897
3.43135
3.42554
3.43103
3.43962
3.44531
3.45227
3.46559
3.48116
3.48547
3.48637
3.48521
3.47744
3.46727
3.4659
3.46798
3.47287
3.47587
3.47543
3.47265
3.46788
3.463
3.46079
3.46092
3.46142
3.4624
3.46543
3.4706
3.47603
3.47918
3.48047
3.48084
3.48007
3.47799
3.47571
3.47533
3.47572
3.47691
3.47937
3.48219
3.48344
3.48325
3.4827
3.48194
3.48107
3.48028
3.47951
3.47841
3.4773
3.47665
3.47668
3.47718
3.47776
3.4781
3.47794
3.47755
3.47602
1.00178
1.02017
1.07532
1.14973
1.34178
1.59382
1.90412
2.2861
2.68615
3.04367
3.31538
3.48362
3.59343
3.65254
3.65447
3.66405
3.61918
3.54445
3.49352
3.4613
3.42478
3.39246
3.39714
3.41012
3.41401
3.42104
3.43459
3.44603
3.44921
3.45174
3.45697
3.45826
3.45979
3.46141
3.46092
3.45768
3.45852
3.46231
3.46802
3.47479
3.47859
3.47833
3.47648
3.4744
3.47265
3.4727
3.47336
3.47345
3.47325
3.47354
3.47473
3.47548
3.47528
3.47512
3.47423
3.47254
3.47097
3.47031
3.47022
3.47053
3.47202
3.47473
3.47752
3.47968
3.48042
3.48037
3.48012
3.47962
3.47916
3.47906
3.4793
3.47972
3.48007
3.48039
3.48055
3.48061
3.48056
3.48026
3.47965
3.47824
0.999997
1
1.00008
1.00012
1.00176
1.00952
1.0383
1.11906
1.30407
1.63826
2.19036
2.92425
3.43776
3.73285
3.91452
3.90167
3.86809
3.7853
3.68135
3.50628
3.40939
3.39011
3.38994
3.39978
3.43171
3.44487
3.44642
3.44603
3.44765
3.45324
3.45678
3.45388
3.45317
3.45522
3.45412
3.45098
3.44976
3.45129
3.45643
3.46421
3.47108
3.4753
3.47688
3.47769
3.47765
3.47792
3.47888
3.48025
3.48136
3.48188
3.48183
3.48088
3.47951
3.47705
3.47425
3.47202
3.47001
3.46885
3.46879
3.46925
3.47043
3.47167
3.47258
3.47354
3.47424
3.47446
3.47476
3.47517
3.47582
3.47687
3.47838
3.48
3.48105
3.48147
3.48157
3.48156
3.48167
3.48168
3.48125
3.47991
1
1
1
1
0.999998
1
0.999995
1.00009
1.00132
1.01049
1.07264
1.2767
1.79546
2.38861
3.10185
3.3964
3.58167
3.61112
3.56801
3.58594
3.57659
3.56246
3.52505
3.48345
3.46592
3.44646
3.42635
3.42356
3.43102
3.44724
3.45571
3.46191
3.46692
3.46651
3.46169
3.45458
3.45177
3.45277
3.4572
3.45986
3.45952
3.46036
3.46227
3.46526
3.46914
3.47318
3.47787
3.48249
3.48491
3.48552
3.48536
3.48373
3.48109
3.47847
3.47633
3.47527
3.47465
3.47452
3.47488
3.47555
3.47553
3.47469
3.47403
3.47349
3.47295
3.47251
3.47242
3.47266
3.47337
3.47454
3.47599
3.47733
3.47819
3.47865
3.47883
3.47899
3.47909
3.47917
3.4789
3.47857
1
1
1
1
1
1
0.999999
0.999999
0.999998
1.00001
1
1.00093
1.02176
1.12219
1.39576
1.96297
2.57758
3.24085
3.48388
3.65269
3.69627
3.67686
3.64521
3.57865
3.45515
3.38666
3.39601
3.41627
3.42518
3.43337
3.44761
3.46227
3.47105
3.47136
3.4697
3.46618
3.4661
3.47006
3.47257
3.46951
3.46572
3.46273
3.45953
3.45928
3.46011
3.46104
3.46286
3.4664
3.46922
3.47047
3.47159
3.47246
3.47292
3.47332
3.47453
3.4765
3.47862
3.48048
3.48207
3.4829
3.4827
3.48193
3.4807
3.47904
3.47773
3.47675
3.47603
3.47581
3.47631
3.47726
3.4783
3.47909
3.47926
3.4791
3.47853
3.47804
3.47749
3.47668
3.47592
3.47544
1
1
1
1
1
1
1
1
1
1
1
1
0.999987
1.00014
1.00293
1.04547
1.19126
1.56475
2.18562
2.7797
3.34762
3.41982
3.4945
3.51221
3.47403
3.44436
3.4558
3.46164
3.44817
3.43738
3.43095
3.43021
3.43877
3.45191
3.45899
3.46463
3.47357
3.48417
3.49006
3.48991
3.48537
3.47309
3.46422
3.46208
3.46197
3.46096
3.46029
3.46374
3.46526
3.46515
3.46527
3.46561
3.46521
3.46456
3.46583
3.46948
3.47444
3.47891
3.48217
3.48447
3.48559
3.48526
3.48436
3.4829
3.48169
3.48101
3.48021
3.47988
3.48092
3.48185
3.48209
3.48209
3.48172
3.48115
3.47995
3.47869
3.47753
3.47637
3.47496
3.47406
1
1
1
1
1
1
1
1
1
1
1
1
0.999999
0.999999
1
1
1.00066
1.00931
1.09449
1.30981
1.78743
2.39658
2.98883
3.4191
3.48821
3.5524
3.54487
3.52557
3.49536
3.45583
3.40331
3.39225
3.39494
3.40787
3.42722
3.43964
3.45305
3.47351
3.48952
3.49317
3.49075
3.4839
3.47708
3.47685
3.47856
3.47836
3.47458
3.47152
3.4702
3.46879
3.46863
3.4686
3.46724
3.46466
3.46408
3.46604
3.47091
3.47585
3.47828
3.47974
3.47979
3.47892
3.47753
3.47583
3.47572
3.47589
3.47586
3.47694
3.47985
3.48137
3.48147
3.48137
3.48093
3.47993
3.47846
3.47748
3.47678
3.47593
3.47481
3.47358
1
1
1
1
1
1
1
1
1
1
1
1
1
1
1
1
1
0.99999
1.00016
1.00248
1.02754
1.1783
1.47822
2.0689
2.64014
3.18489
3.44019
3.43752
3.48104
3.48592
3.44645
3.42323
3.41654
3.41377
3.41688
3.41727
3.41857
3.42873
3.44481
3.46255
3.47291
3.47312
3.47375
3.47813
3.48327
3.48681
3.48767
3.48662
3.48524
3.48383
3.48139
3.47625
3.47007
3.46657
3.46502
3.46546
3.46927
3.47351
3.4754
3.4751
3.47382
3.47216
3.47056
3.46997
3.47033
3.47097
3.47239
3.47568
3.47937
3.4807
3.48089
3.48048
3.47942
3.47817
3.47731
3.47688
3.47634
3.47581
3.4759
3.47539
1
1
1
1
1
1
1
1
1
1
1
1
1
1
1
1
1
0.999999
0.999999
0.999999
0.999995
1.00089
1.00814
1.07868
1.32544
1.7558
2.33507
2.85238
3.31954
3.46703
3.49015
3.50767
3.50679
3.47064
3.44393
3.42765
3.41687
3.41445
3.41495
3.42112
3.43436
3.44033
3.44374
3.45156
3.46107
3.47208
3.48246
3.48527
3.48604
3.48646
3.48564
3.48385
3.48085
3.47925
3.47838
3.47709
3.47769
3.4772
3.47642
3.47534
3.47348
3.47133
3.46985
3.46969
3.47011
3.47108
3.47332
3.4765
3.47924
3.48013
3.48035
3.47977
3.47825
3.47733
3.47682
3.47674
3.47743
3.47831
3.47901
3.47843
1
1
1
1
1
1
1
1
1
1
1
1
1
1
1
1
1
1
1
1
1
1
0.999993
1.00019
1.00393
1.02796
1.18202
1.5186
2.08433
2.62718
3.08104
3.39271
3.45419
3.47328
3.49569
3.49116
3.47576
3.46515
3.44878
3.43404
3.43064
3.42953
3.43028
3.43712
3.44418
3.44997
3.45703
3.46292
3.46707
3.4702
3.47192
3.4735
3.47474
3.47603
3.47719
3.47955
3.48208
3.48333
3.48339
3.48271
3.48094
3.47815
3.47483
3.4725
3.47226
3.47298
3.47541
3.47878
3.47965
3.47965
3.47894
3.47718
3.4755
3.4747
3.47413
3.47437
3.47671
3.47945
3.48081
3.4806
1
1
1
1
1
1
1
1
1
1
1
1
1
1
1
1
1
1
1
1
1
1
0.999999
0.999999
0.999998
1.00001
1.00141
1.01333
1.08937
1.40072
1.88005
2.44806
2.86133
3.25947
3.42537
3.45535
3.48417
3.50475
3.50479
3.49513
3.48083
3.46371
3.45834
3.45647
3.45245
3.44788
3.44823
3.45234
3.45468
3.45817
3.45948
3.4589
3.45918
3.46171
3.46623
3.4721
3.47712
3.48001
3.48184
3.48191
3.48092
3.4802
3.47952
3.47909
3.47929
3.47981
3.48134
3.48208
3.48098
3.47914
3.47706
3.47461
3.47322
3.47269
3.4724
3.47329
3.47603
3.47812
3.47943
3.48004
1
1
1
1
1
1
1
1
1
1
1
1
1
1
1
1
1
1
1
1
1
1
1
1
1
1
1
0.999997
1.00039
1.00895
1.05032
1.2514
1.68073
2.29509
2.7582
3.10623
3.31323
3.41992
3.48557
3.50391
3.5035
3.49065
3.48807
3.49108
3.49138
3.48703
3.48454
3.47788
3.46783
3.46367
3.46166
3.45676
3.45315
3.45361
3.45874
3.46487
3.4686
3.47019
3.47134
3.47242
3.4731
3.47443
3.47659
3.4787
3.48055
3.48296
3.48511
3.48514
3.48415
3.48241
3.47967
3.47652
3.4748
3.47405
3.47349
3.47365
3.47576
3.4776
3.4777
3.47773
1
1
1
1
1
1
1
1
1
1
1
1
1
1
1
1
1
1
1
1
1
1
1
1
1
1
1
1
1
0.999998
1.00011
1.00375
1.03173
1.15525
1.56762
2.18065
2.73497
3.02326
3.25957
3.39415
3.439
3.44812
3.46346
3.48305
3.49186
3.49636
3.49571
3.48936
3.48819
3.49148
3.49316
3.48758
3.47612
3.47102
3.46986
3.46812
3.46672
3.46655
3.46538
3.46509
3.4662
3.46782
3.46964
3.47186
3.47511
3.47932
3.48147
3.48175
3.48143
3.48031
3.47783
3.4756
3.47549
3.47595
3.47662
3.47784
3.4783
3.47762
3.47673
3.47581
1
1
1
1
1
1
1
1
1
1
1
1
1
1
1
1
1
1
1
1
1
1
1
1
1
1
1
1
1
1
1
0.999997
1.00005
1.00151
1.02634
1.12483
1.46344
2.0299
2.71781
3.06453
3.23454
3.31625
3.34845
3.39402
3.4181
3.4503
3.46593
3.47279
3.47944
3.48661
3.4929
3.49271
3.48738
3.48716
3.48891
3.4875
3.48443
3.48196
3.47676
3.47106
3.46792
3.46623
3.46724
3.46983
3.47219
3.47443
3.47605
3.47683
3.47697
3.47544
3.47258
3.47163
3.4727
3.47407
3.47666
3.48053
3.48183
3.4813
3.47913
3.47468
1
1
1
1
1
1
1
1
1
1
1
1
1
1
1
1
1
1
1
1
1
1
1
1
1
1
1
1
1
1
1
1
1
0.999998
1.00005
1.00098
1.01755
1.10455
1.37935
1.9508
2.66306
3.1899
3.27703
3.35206
3.37633
3.40438
3.41366
3.41681
3.42417
3.43455
3.44442
3.4582
3.47341
3.48172
3.48681
3.48825
3.48513
3.48179
3.47869
3.47674
3.47543
3.47408
3.4745
3.47638
3.47784
3.47851
3.47895
3.47955
3.47911
3.4758
3.47037
3.46848
3.46949
3.47121
3.4752
3.48044
3.48282
3.48354
3.48299
3.47714
1
1
1
1
1
1
1
1
1
1
1
1
1
1
1
1
1
1
1
1
1
1
1
1
1
1
1
1
1
1
1
1
1
1
1
0.999998
1.00002
1.00077
1.01099
1.10167
1.37385
1.95707
2.61589
3.15476
3.38821
3.43952
3.44703
3.42757
3.42694
3.424
3.41818
3.42397
3.44056
3.44823
3.45409
3.46006
3.46564
3.47189
3.4731
3.47346
3.47325
3.47196
3.47237
3.47438
3.47789
3.48132
3.48282
3.48408
3.48397
3.48046
3.47468
3.47118
3.47131
3.47257
3.47533
3.47897
3.48151
3.48313
3.48423
3.48111
1
1
1
1
1
1
1
1
1
1
1
1
1
1
1
1
1
1
1
1
1
1
1
1
1
1
1
1
1
1
1
1
1
1
1
1
1
0.999999
1.00001
1.00092
1.01069
1.10671
1.39314
1.96296
2.64191
3.18612
3.40365
3.46173
3.49217
3.49868
3.47964
3.45873
3.45609
3.45633
3.45357
3.45398
3.45616
3.45984
3.46004
3.46087
3.46285
3.46487
3.46728
3.46966
3.47314
3.47765
3.48031
3.48198
3.48291
3.48166
3.47766
3.47468
3.4745
3.47522
3.47631
3.47736
3.47883
3.48032
3.48157
3.48109
1
1
1
1
1
1
1
1
1
1
1
1
1
1
1
1
1
1
1
1
1
1
1
1
1
1
1
1
1
1
1
1
1
1
1
1
1
1
1
0.999999
1.00001
1.00118
1.01212
1.11316
1.45844
2.05898
2.67856
3.1585
3.3972
3.47131
3.50011
3.50054
3.50069
3.50183
3.49651
3.48936
3.48439
3.47708
3.46878
3.46412
3.46364
3.46437
3.46396
3.4636
3.46541
3.47233
3.47609
3.47806
3.48062
3.48053
3.47659
3.47546
3.47601
3.47676
3.47708
3.47637
3.47552
3.47572
3.47602
3.47656
1
1
1
1
1
1
1
1
1
1
1
1
1
1
1
1
1
1
1
1
1
1
1
1
1
1
1
1
1
1
1
1
1
1
1
1
1
1
1
1
1
0.999999
1.00002
1.00151
1.01721
1.13345
1.56635
2.24843
2.78504
3.15093
3.36262
3.45107
3.47692
3.49267
3.49615
3.49793
3.4975
3.49128
3.48219
3.47757
3.47923
3.48114
3.47691
3.47357
3.47291
3.47533
3.47626
3.47655
3.47578
3.47377
3.47311
3.47416
3.47655
3.47799
3.47874
3.47803
3.47513
3.47211
3.46965
3.47071
1
1
1
1
1
1
1
1
1
1
1
1
1
1
1
1
1
1
1
1
1
1
1
1
1
1
1
1
1
1
1
1
1
1
1
1
1
1
1
1
1
1
1
0.999999
1.00004
1.00241
1.03245
1.18905
1.67164
2.45377
2.99544
3.21954
3.34312
3.39438
3.41871
3.43983
3.46004
3.46187
3.46112
3.46765
3.47896
3.48322
3.47983
3.47752
3.47849
3.48214
3.4825
3.47894
3.47344
3.47017
3.4695
3.47029
3.47383
3.47673
3.47963
3.48178
3.48191
3.47817
3.47069
3.4674
1
1
1
1
1
1
1
1
1
1
1
1
1
1
1
1
1
1
1
1
1
1
1
1
1
1
1
1
1
1
1
1
1
1
1
1
1
1
1
1
1
1
1
1
1
1
1.00015
1.0043
1.05442
1.27966
1.88882
2.66836
3.24284
3.34755
3.40087
3.41295
3.42524
3.43073
3.42751
3.43603
3.45059
3.45761
3.46059
3.46518
3.47571
3.48305
3.48435
3.4814
3.47347
3.46857
3.46741
3.46745
3.46919
3.47417
3.47967
3.48474
3.48791
3.48766
3.48286
3.47177
1
1
1
1
1
1
1
1
1
1
1
1
1
1
1
1
1
1
1
1
1
1
1
1
1
1
1
1
1
1
1
1
1
1
1
1
1
1
1
1
1
1
1
1
1
1
1
1
1.00048
1.00916
1.11243
1.45239
2.16183
2.90661
3.3241
3.47254
3.49409
3.48711
3.46198
3.46075
3.46124
3.45116
3.44377
3.44891
3.466
3.4774
3.48
3.47937
3.4755
3.47013
3.46726
3.46547
3.46345
3.46179
3.46549
3.47384
3.4841
3.48824
3.48773
3.48308
1
1
1
1
1
1
1
1
1
1
1
1
1
1
1
1
1
1
1
1
1
1
1
1
1
1
1
1
1
1
1
1
1
1
1
1
1
1
1
1
1
1
1
1
1
1
1
1
0.999999
1.00003
1.00186
1.02443
1.20502
1.73746
2.46024
3.06969
3.42104
3.46406
3.48775
3.51732
3.51669
3.49963
3.47298
3.46466
3.47216
3.47863
3.4796
3.47877
3.47832
3.47976
3.47886
3.47503
3.4672
3.45988
3.45717
3.45795
3.46297
3.47641
3.4869
3.48613
1
1
1
1
1
1
1
1
1
1
1
1
1
1
1
1
1
1
1
1
1
1
1
1
1
1
1
1
1
1
1
1
1
1
1
1
1
1
1
1
1
1
1
1
1
1
1
1
1
1
1
1.00017
1.00567
1.06662
1.42046
2.08132
2.85623
3.14463
3.31854
3.46128
3.49341
3.48157
3.48246
3.4841
3.48328
3.48023
3.47527
3.47242
3.4741
3.4822
3.48934
3.49135
3.48994
3.47878
3.46169
3.45562
3.45648
3.46322
3.47627
3.4855
1
1
1
1
1
1
1
1
1
1
1
1
1
1
1
1
1
1
1
1
1
1
1
1
1
1
1
1
1
1
1
1
1
1
1
1
1
1
1
1
1
1
1
1
1
1
1
1
1
1
1
1
1.00001
1.00106
1.02339
1.16209
1.67833
2.67134
3.07221
3.27845
3.40916
3.43608
3.44302
3.45913
3.47049
3.46696
3.45805
3.44864
3.44508
3.45376
3.47463
3.49187
3.49785
3.49733
3.48897
3.47256
3.46308
3.4627
3.47046
3.47932
1
1
1
1
1
1
1
1
1
1
1
1
1
1
1
1
1
1
1
1
1
1
1
1
1
1
1
1
1
1
1
1
1
1
1
1
1
1
1
1
1
1
1
1
1
1
1
1
1
1
1
1
1
1
1.00014
1.00489
1.06684
1.45864
2.22779
2.91562
3.37401
3.46759
3.46449
3.46745
3.47051
3.47163
3.46353
3.44882
3.434
3.42574
3.43138
3.44915
3.47853
3.4955
3.49467
3.48564
3.47433
3.4723
3.47455
3.47813
1
1
1
1
1
1
1
1
1
1
1
1
1
1
1
1
1
1
1
1
1
1
1
1
1
1
1
1
1
1
1
1
1
1
1
1
1
1
1
1
1
1
1
1
1
1
1
1
1
1
1
1
1
1
1
1.00002
1.0013
1.03089
1.28076
1.8103
2.67137
3.20149
3.38105
3.46886
3.50836
3.52492
3.51982
3.51102
3.48984
3.44703
3.42796
3.43174
3.45248
3.47485
3.48104
3.48151
3.47945
3.47729
3.48
3.4829
1
1
1
1
1
1
1
1
1
1
1
1
1
1
1
1
1
1
1
1
1
1
1
1
1
1
1
1
1
1
1
1
1
1
1
1
1
1
1
1
1
1
1
1
1
1
1
1
1
1
1
1
1
1
1
1
1
1.0004
1.01199
1.10394
1.55147
2.51395
3.05635
3.23246
3.35439
3.45278
3.52729
3.54821
3.54882
3.5209
3.47663
3.45479
3.45003
3.45957
3.46623
3.46743
3.46849
3.47187
3.47967
3.48632
1
1
1
1
1
1
1
1
1
1
1
1
1
1
1
1
1
1
1
1
1
1
1
1
1
1
1
1
1
1
1
1
1
1
1
1
1
1
1
1
1
1
1
1
1
1
1
1
1
1
1
1
1
1
1
1
1
1
1.00006
1.00287
1.04894
1.40361
2.21004
3.05111
3.21611
3.28095
3.38027
3.49342
3.53416
3.53164
3.50619
3.47357
3.46536
3.46909
3.47045
3.46933
3.46511
3.46493
3.46981
3.4835
1
1
1
1
1
1
1
1
1
1
1
1
1
1
1
1
1
1
1
1
1
1
1
1
1
1
1
1
1
1
1
1
1
1
1
1
1
1
1
1
1
1
1
1
1
1
1
1
1
1
1
1
1
1
1
1
1
1
1
1.00001
1.00098
1.03177
1.25361
1.91066
2.871
3.28274
3.30856
3.38313
3.46899
3.4928
3.4832
3.47252
3.47307
3.48157
3.49181
3.49138
3.47811
3.46116
3.45726
3.46791
1
1
1
1
1
1
1
1
1
1
1
1
1
1
1
1
1
1
1
1
1
1
1
1
1
1
1
1
1
1
1
1
1
1
1
1
1
1
1
1
1
1
1
1
1
1
1
1
1
1
1
1
1
1
1
1
1
1
1
1
1
1.00048
1.01348
1.13858
1.70644
2.72071
3.21807
3.3506
3.41617
3.45208
3.44882
3.44083
3.44783
3.47162
3.49705
3.50351
3.49447
3.46992
3.44622
3.44614
1
1
1
1
1
1
1
1
1
1
1
1
1
1
1
1
1
1
1
1
1
1
1
1
1
1
1
1
1
1
1
1
1
1
1
1
1
1
1
1
1
1
1
1
1
1
1
1
1
1
1
1
1
1
1
1
1
1
1
1
1
1
1.00012
1.00548
1.09148
1.56567
2.464
3.15502
3.45906
3.48529
3.48386
3.46246
3.45209
3.46419
3.48037
3.49967
3.50282
3.49342
3.46553
3.44277
1
1
1
1
1
1
1
1
1
1
1
1
1
1
1
1
1
1
1
1
1
1
1
1
1
1
1
1
1
1
1
1
1
1
1
1
1
1
1
1
1
1
1
1
1
1
1
1
1
1
1
1
1
1
1
1
1
1
1
1
1
1
1
1.00006
1.00276
1.06456
1.48661
2.30931
2.98637
3.34638
3.48764
3.49396
3.46888
3.44794
3.44732
3.47
3.50685
3.51504
3.51058
3.47305
1
1
1
1
1
1
1
1
1
1
1
1
1
1
1
1
1
1
1
1
1
1
1
1
1
1
1
1
1
1
1
1
1
1
1
1
1
1
1
1
1
1
1
1
1
1
1
1
1
1
1
1
1
1
1
1
1
1
1
1
1
1
1
1
1.00002
1.00222
1.04574
1.34722
2.18326
3.08381
3.4519
3.45355
3.41298
3.38804
3.38448
3.40166
3.45302
3.51156
3.5239
3.51406
1
1
1
1
1
1
1
1
1
1
1
1
1
1
1
1
1
1
1
1
1
1
1
1
1
1
1
1
1
1
1
1
1
1
1
1
1
1
1
1
1
1
1
1
1
1
1
1
1
1
1
1
1
1
1
1
1
1
1
1
1
1
1
1
1
1.00002
1.00103
1.03077
1.30018
2.1063
2.96555
3.41029
3.50705
3.50356
3.45139
3.39657
3.39226
3.42314
3.46425
3.59648
1
1
1
1
1
1
1
1
1
1
1
1
1
1
1
1
1
1
1
1
1
1
1
1
1
1
1
1
1
1
1
1
1
1
1
1
1
1
1
1
1
1
1
1
1
1
1
1
1
1
1
1
1
1
1
1
1
1
1
1
1
1
1
1
1
1
1
1.00079
1.02245
1.26823
2.03721
2.8187
3.37621
3.51818
3.53183
3.49299
3.40987
3.39221
3.40681
4.12979
1
1
1
1
1
1
1
1
1
1
1
1
1
1
1
1
1
1
1
1
1
1
1
1
1
1
1
1
1
1
1
1
1
1
1
1
1
1
1
1
1
1
1
1
1
1
1
1
1
1
1
1
1
1
1
1
1
1
1
1
1
1
1
1
1
1
1
1
1.00054
1.01888
1.22913
2.01431
2.79377
3.38254
3.51822
3.52146
3.47978
3.41553
3.57613
5.87115
1
1
1
1
1
1
1
1
1
1
1
1
1
1
1
1
1
1
1
1
1
1
1
1
1
1
1
1
1
1
1
1
1
1
1
1
1
1
1
1
1
1
1
1
1
1
1
1
1
1
1
1
1
1
1
1
1
1
1
1
1
1
1
1
1
1
1
1
1
1.00044
1.01754
1.2391
1.98013
2.88054
3.37832
3.48817
3.58866
3.9514
5.48863
8.29856
1
1
1
1
1
1
1
1
1
1
1
1
1
1
1
1
1
1
1
1
1
1
1
1
1
1
1
1
1
1
1
1
1
1
1
1
1
1
1
1
1
1
1
1
1
1
1
1
1
1
1
1
1
1
1
1
1
1
1
1
1
1
1
1
1
1
1
1
1
1
1.00056
1.01763
1.25189
2.01835
2.89552
3.57612
4.49882
6.02363
7.71733
8.95281
1
1
1
1
1
1
1
1
1
1
1
1
1
1
1
1
1
1
1
1
1
1
1
1
1
1
1
1
1
1
1
1
1
1
1
1
1
1
1
1
1
1
1
1
1
1
1
1
1
1
1
1
1
1
1
1
1
1
1
1
1
1
1
1
1
1
1
1
1
1
1
1.00047
1.0246
1.25826
2.39184
4.55005
7.09332
9.72861
10.3598
9.90694
)
;

boundaryField
{
    inlet
    {
        type            fixedValue;
        value           uniform 1;
    }
    outlet
    {
        type            zeroGradient;
    }
    bottom
    {
        type            symmetryPlane;
    }
    top
    {
        type            symmetryPlane;
    }
    obstacle
    {
        type            zeroGradient;
    }
    defaultFaces
    {
        type            empty;
    }
}


// ************************************************************************* //
