/*--------------------------------*- C++ -*----------------------------------*\
| =========                 |                                                 |
| \\      /  F ield         | OpenFOAM: The Open Source CFD Toolbox           |
|  \\    /   O peration     | Version:  2206                                  |
|   \\  /    A nd           | Website:  www.openfoam.com                      |
|    \\/     M anipulation  |                                                 |
\*---------------------------------------------------------------------------*/
FoamFile
{
    version     2.0;
    format      ascii;
    arch        "LSB;label=32;scalar=64";
    class       volVectorField;
    location    "0.14";
    object      U;
}
// * * * * * * * * * * * * * * * * * * * * * * * * * * * * * * * * * * * * * //

dimensions      [0 1 -1 0 0 0 0];

internalField   nonuniform List<vector> 
75
(
(3.40404 -1.87532e-17 0)
(3.40404 -9.58499e-18 0)
(3.40404 5.83976e-15 0)
(3.40404 5.44552e-15 0)
(3.40404 1.5276e-14 0)
(3.40404 -6.1594e-16 0)
(3.40404 -1.03226e-15 0)
(3.40404 -1.01643e-15 0)
(3.40404 -1.47442e-15 0)
(3.40404 1.1614e-13 0)
(3.40404 -5.39301e-15 0)
(3.40404 -4.34783e-15 0)
(3.40404 -6.79242e-15 0)
(3.40404 -1.09611e-14 0)
(3.40404 -1.44365e-13 0)
(3.40404 -4.05903e-16 0)
(3.40404 3.49102e-15 0)
(3.40404 1.09673e-14 0)
(3.40404 1.05656e-14 0)
(3.40404 -3.53682e-13 0)
(3.40404 3.27973e-15 0)
(3.40404 9.37037e-15 0)
(3.40404 1.74476e-14 0)
(3.40404 2.47509e-14 0)
(3.40404 -4.08079e-14 0)
(3.35036 0.0100016 0)
(3.27646 0.0675623 0)
(3.19486 0.169586 0)
(3.13511 0.239549 0)
(3.04136 0.388687 0)
(2.9752 0.495692 0)
(2.93314 0.632136 0)
(2.87294 0.730744 0)
(2.87196 0.805867 0)
(2.93998 0.817541 0)
(3.40067 0.00482274 0)
(3.38425 0.0326561 0)
(3.33873 0.11883 0)
(3.27839 0.255273 0)
(3.1413 0.51047 0)
(3.06291 0.728428 0)
(2.87044 1.03411 0)
(2.79245 0.947373 0)
(2.8382 0.912889 0)
(2.90087 0.873175 0)
(3.40403 2.5576e-05 0)
(3.40404 -5.2565e-05 0)
(3.4034 0.00122547 0)
(3.40013 0.00816248 0)
(3.38305 0.0494964 0)
(3.354 0.140163 0)
(3.2289 0.478992 0)
(3.14321 0.68053 0)
(3.00095 0.864132 0)
(2.93931 0.820362 0)
(3.40404 4.11876e-08 0)
(3.40404 -1.83042e-06 0)
(3.40404 2.88126e-06 0)
(3.40405 -4.74934e-05 0)
(3.40383 0.000469488 0)
(3.40184 0.00626766 0)
(3.35958 0.117898 0)
(3.35578 0.35283 0)
(3.11647 0.907023 0)
(2.92347 0.672233 0)
(3.40404 1.48534e-11 0)
(3.40404 -7.43866e-08 0)
(3.40404 -2.97884e-08 0)
(3.40404 -6.18651e-06 0)
(3.40404 -2.3554e-06 0)
(3.40404 -2.8173e-05 0)
(3.40145 0.0037016 0)
(3.37858 0.0487111 0)
(3.18728 0.35467 0)
(2.98353 0.392051 0)
)
;

boundaryField
{
    inlet
    {
        type            fixedValue;
        value           uniform (3.40404 0 0);
    }
    outlet
    {
        type            zeroGradient;
    }
    bottom
    {
        type            symmetryPlane;
    }
    top
    {
        type            symmetryPlane;
    }
    obstacle
    {
        type            slip;
    }
    defaultFaces
    {
        type            empty;
    }
}


// ************************************************************************* //
