/*--------------------------------*- C++ -*----------------------------------*\
| =========                 |                                                 |
| \\      /  F ield         | OpenFOAM: The Open Source CFD Toolbox           |
|  \\    /   O peration     | Version:  2206                                  |
|   \\  /    A nd           | Website:  www.openfoam.com                      |
|    \\/     M anipulation  |                                                 |
\*---------------------------------------------------------------------------*/
FoamFile
{
    version     2.0;
    format      ascii;
    arch        "LSB;label=32;scalar=64";
    class       volScalarField;
    location    "0.04";
    object      p;
}
// * * * * * * * * * * * * * * * * * * * * * * * * * * * * * * * * * * * * * //

dimensions      [1 -1 -2 0 0 0 0];

internalField   nonuniform List<scalar> 
4800
(
1
1
1
1
1
1
1
1
1
1
1
1
1
1
1
1
1
1
1
1
1
1
1
1
1
1
1
1
1
1
1
1
1
1
1
1
1
1
1
1
1
1
1
1
1
1
1
1
1
1
1
1
1
1
1
1
1
1
1
1
1
1
1
1
1
1
1
1
1
1
1
1
1
1
1
1
1
1
1
1
1
1
1
1
1
1
1
1
1
1
1
1
1
1
1
1
1
1
1
1
1
1
1
1
1
1
1
1
1
1
1
1
1
1
1
1
1
1
1
1
1
1
1
1
1
1
1
1
1
1
1
1
1
1
1
1
1
1
1
1
1
1
1
1
1
1
1
1
1
1
1
1
1
1
1
1
1
1
1
1
1
1
1
1
1
1
1
1
1
1
1
1
1
1
1
1
1
1
1
1
1
1
1
1
1
1
1
1
1
1
1
1
1
1
1
1
1
1
1
1
1
1
1
1
1
1
1
1
1
1
1
1
1
1
1
1
1
1
1
1
1
1
1
1
1
1
1
1
1
1
1
1
1
1
1
1
1
1
1
1
1
1
1
1
1
1
1
1
1
1
1
1
1
1
1
1
1
1
1
1
1
1
1
1
1
1
1
1
1
1
1
1
1
1
1
1
1
1
1
1
1
1
1
1
1
1
1
1
1
1
1
1
1
1
1
1
1
1
1
1
1
1
1
1
1
1
1
1
1
1
1
1
1
1
1
1
1
1
1
1
1
1
1
1
1
1
1
1
1
1
1
1
1
1
1
1
1
1
1
1
1
1
1
1
1
1
1
1
1
1
1
1
1
1
1
1
1
1
1
1
1
1
1
1
1
1
1
1
1
1
1
1
1
1
1
1
1
1
1
1
1
1
1
1
1
1
1
1
1
1
1
1
1
1
1
1
1
1
1
1
1
1
1
1
1
1
1
1
1
1
1
1
1
1
1
1
1
1
1
1
1
1
1
1
1
1
1
1
1
1
1
1
1
1
1
1
1
1
1
1
1
1
1
1
1
1
1
1
1
1
1
1
1
1
1
1
1
1
1
1
1
1
1
1
1
1
1
1
1
1
1
1
1
1
1
1
1
1
1
1
1
1
1
1
1
1
1
1
1
1
1
1
1
1
1
1
1
1
1
1
1
1
1
1
1
1
1
1
1
1
1
1
1
1
1
1
1
1
1
1
1
1
1
1
1
1
1
1
1
1
1
1
1
1
1
1
1
1
1
1
1
1
1
1
1
1
1
1
1
1
1
1
1
1
1
1
1
1
1
1
1
1
1
1
1
1
1
1
1
1
1
1
1
1
1
1
1
1
1
1
1
1
1
1
1
1
1
1
1
1
1
1
1
1
1
1
1
1
1
1
1
1
1
1
1
1
1
1
1
1
1
1
1
1
1
1
1
1
1
1
1
1
1
1
1
1
1
1
1
1
1
1
1
1
1
1
1
1
1
1
1
1
1
1
1
1
1
1
1
1
1
1
1
1
1
1
1
1
1
1
1
1
1
1
1
1
1
1
1
1
1
1
1
1
1
1
1
1
1
1
1
1
1
1
1
1
1
1
1
1
1
1
1
1
1
1
1
1
1
1
1
1
1
1
1
1
1
1
1
1
1
1
1
1
1
1
1
1
1
1
1
1
1
1
1
1
1
1
1
1
1
1
1
1
1
1
1
1
1
1
1
1
1
1
1
1
1
1
1
1
1
1
1
1
1
1
1
1
1
1
1
1
1
1
1
1
1
1
1
1
1
1
1
1
1
1
1
1
1
1
1
1
1
1
1
1
1
1
1
1
1
1
1
1
1
1
1
1
1
1
1
1
1
1
1
1
1
1
1
1
1
1
1
1
1
1
1
1
1
1
1
1
1
1
1
1
1
1
1
1
1
1
1
1
1
1
1
1
1
1
1
1
1
1
1
1
1
1
1
1
1
1
1
1
1
1
1
1
1
1
1
1
1
1
1
1
1
1
1
1
1
1
1
1
1
1
1
1
1
1
1
1
1
1
1
1
1
1
1
1
1
1
1
1
1
1
1
1
1
1
1
1
1
1
1
1
1
1
1
1
1
1
1
1
1
1
1
1
1
1
1
1
1
1
1
1
1
1
1
1
1
1
1
1
1
1
1
1
1
1
1
1
1
1
1
1
1
1
1
1
1
1
1
1
1
1
1
1
1
1
1
1
1
1
1
1
1
1
1
1
1
1
1
1
1
1
1
1
1
1
1
1
1
1
1
1
1
1
1
1
1
1
1
1
1
1
1
1
1
1
1
1
1
1
1
1
1
1
1
1
1
1
1
1
1
1
1
1
1
1
1
1
1
1
1
1
1
1
1
1
1
1
1
1
1
1
1
1
1
1
1
1
1
1
1
1
1
1
1
1
1
1
1
1
1
1
1
1
1
1
1
1
1
1
1
1
1
1
1
1
1
1
1
1
1
1
1
1
1
1
1
1
1
1
1
1
1
1
1
1
1
1
1
1
1
1
1
1
1
1
1
1
1
1
1
1
1
1
1
1
1
1
1
1
1
1
1
1
1
1
1
1
1
1
1
1
1
1
1
1
1
1
1
1
1
1
1
1
1
1
1
1
1
1
1
1
1
1
1
1
1
1
1
1
1
1
1
1
1
1
1
1
1
1
1
1
1
1
1
1
1
1
1
1
1
1
1
1
1
1
1
1
1
1
1
1
1
1
1
1
1
1
1
1
1
1
1
1
1
1
1
1
1
1
1
1
1
1
1
1
1
1
1
1
1
1
1
1
1
1
1
1
1
1
1
1
1
1
1
1
1
1
1
1
1
1
1
1
1
1
1
1
1
1
1
1
1
1
1
1
1
1
1
1
1
1
1
1
1
1
1
1
1
1
1
1
1
1
1
1
1
1
1
1
1
1
1
1
1
1
1
1
1
1
1
1
1
1
1
1
1
1
1
1
1
1
1
1
1
1
1
1
1
1
1
1
1
1
1
1
1
1
1
1
1
1
1
1
1
1
1
1
1
1
1
1
1
1
1
1
1
1
1
1
1
1
1
1
1
1
1
1
1
1
1
1
1
1
1
1
1
1
1
1
1
1
1
1
1
1
1
1
1
1
1
1
1
1
1
1
1
1
1
1
1
1
1
1
1
1
1
1
1
1
1
1
1
1
1
1
1
1
1
1
1
1
1
1
1
1
1
1
1
1
1
1
1
1
1
1
1
1
1
1
1
1
1
1
1
1
1
1
1
1
1
1
1
1
1
1
1
1
1
1
1
1
1
1
1
1
1
1
1
1
1
1
1
1
1
1
1
1
1
1
1
1
1
1
1
1
1
1
1
1
1
1
1
1
1
1
1
1
1
1
1
1
1
1
1
1
1
1
1
1
1
1
1
1
1
1
1
1
1
1
1
1
1
1
1
1
1
1
1
1
1
1
1
1
1
1
1
1
1
1
1
1
1
1
1
1
1
1
1
1
1
1
1
1
1
1
1
1
1
1
1
1
1
1
1
1
1
1
1
1
1
1
1
1
1
1
1
1
1
1
1
1
1
1
1
1
1
1
1
1
1
1
1
1
1
1
1
1
1
1
1
1
1
1
1
1
1
1
1
1
1
1
1
1
1
1
1
1
1
1
1
1
1
1
1
1
1.26823
1.68988
2.18529
2.73853
3.25067
3.83033
4.36495
4.69475
5.0084
5.40999
5.48082
5.39308
5.15099
4.83734
4.46692
4.13737
3.903
3.79607
3.73276
3.65971
3.64907
3.67149
3.72329
3.79826
3.86455
3.86312
3.83833
3.78844
3.75299
3.73363
3.70909
3.6923
3.68572
3.68218
3.67596
3.66464
3.6486
3.63336
3.62393
3.63181
3.65253
3.64523
3.63979
3.64021
3.64223
3.64051
3.63793
3.63745
3.64244
3.6584
3.6881
3.73442
3.78602
3.81165
3.81447
3.81455
3.81506
3.81471
3.81415
3.81399
3.81427
3.815
3.81592
3.81624
3.81615
3.81576
3.81519
3.81448
3.81356
3.81249
3.81148
3.81066
3.81023
3.80973
3.80925
3.80924
3.80936
3.80954
3.80997
3.8112
0.999629
1.00529
1.03224
1.0956
1.23589
1.40237
1.69314
2.06823
2.4239
2.84934
3.2805
3.59133
3.79714
3.96568
4.16349
4.14406
4.12284
4.12546
4.10864
4.03588
3.93088
3.86736
3.83678
3.83075
3.83312
3.82179
3.7925
3.75517
3.72853
3.70968
3.68518
3.66594
3.65399
3.64767
3.64196
3.6355
3.62361
3.61394
3.61073
3.62143
3.64111
3.63743
3.63383
3.63524
3.63693
3.63992
3.64362
3.64944
3.66032
3.67918
3.70969
3.7552
3.80056
3.81726
3.81799
3.81712
3.81503
3.81274
3.81031
3.80868
3.80775
3.80721
3.80695
3.80695
3.80716
3.80766
3.80834
3.80888
3.80917
3.80978
3.81063
3.81139
3.81187
3.81237
3.81291
3.81338
3.81334
3.81337
3.81339
3.81312
1
1
1
1
0.999999
0.999838
1.00431
1.02707
1.09458
1.23403
1.53791
2.00852
2.67321
3.48994
4.0594
4.27165
4.42838
4.41946
4.39561
4.33441
4.21017
3.99507
3.83383
3.817
3.82808
3.82686
3.79384
3.75326
3.7342
3.71365
3.68304
3.65685
3.63442
3.62419
3.61923
3.61595
3.61715
3.62293
3.6323
3.64909
3.66598
3.66109
3.65095
3.64388
3.6426
3.64427
3.64799
3.65515
3.66643
3.68424
3.71395
3.76006
3.80142
3.81224
3.81221
3.81084
3.80748
3.80373
3.80146
3.80035
3.80036
3.80081
3.8016
3.80253
3.80343
3.80443
3.80568
3.80771
3.81007
3.81167
3.81285
3.81384
3.81429
3.81463
3.8149
3.81487
3.81475
3.8148
3.81457
3.81355
1
1
1
1
1
1
1
1
1
0.999735
1.00148
1.01888
1.12243
1.40884
2.02448
2.70943
3.40044
3.81705
4.03883
4.11021
4.0457
4.05564
4.05401
4.04071
4.01141
3.97242
3.90237
3.82761
3.75101
3.68337
3.62228
3.60066
3.59815
3.59457
3.58728
3.58494
3.60779
3.62407
3.63572
3.65013
3.66532
3.65869
3.64757
3.64015
3.63784
3.63964
3.64306
3.64948
3.66341
3.68313
3.71159
3.75337
3.79154
3.80366
3.80438
3.80465
3.80416
3.80262
3.80233
3.80338
3.80492
3.8068
3.80878
3.81006
3.81082
3.81145
3.81195
3.81198
3.81201
3.81235
3.81283
3.81316
3.81279
3.81274
3.81294
3.81254
3.81229
3.81266
3.81304
3.81334
1
1
1
1
1
1
1
1
1
1
0.999998
1
0.999868
1.00043
1.02075
1.14591
1.41787
1.98667
2.67619
3.42825
3.83698
4.10134
4.23145
4.21072
4.17038
4.10575
4.00194
3.82875
3.74597
3.68698
3.62153
3.601
3.59355
3.58851
3.59163
3.59547
3.59573
3.59773
3.60618
3.62337
3.62423
3.6099
3.60686
3.60963
3.61343
3.61834
3.6229
3.63133
3.65045
3.67519
3.71299
3.76061
3.79744
3.8107
3.81167
3.8125
3.81289
3.81314
3.81374
3.81419
3.8146
3.8151
3.81548
3.81559
3.81553
3.81499
3.81375
3.81197
3.80983
3.80818
3.80725
3.80674
3.80675
3.80722
3.80846
3.8098
3.81104
3.81241
3.8138
3.81538
1
1
1
1
1
1
1
1
1
1
1
1
0.999999
0.999998
1
0.999921
1.00083
1.02353
1.15275
1.4564
2.09177
2.75082
3.461
3.71698
3.90546
3.90083
3.85164
3.85437
3.82912
3.80052
3.73925
3.69821
3.66399
3.63819
3.61891
3.60109
3.57839
3.57177
3.58511
3.58897
3.57635
3.56263
3.56665
3.57798
3.58868
3.59628
3.60364
3.61754
3.64255
3.6832
3.73374
3.78172
3.81034
3.81883
3.81931
3.81804
3.81689
3.81645
3.81648
3.81649
3.81595
3.81488
3.81347
3.81139
3.80927
3.80767
3.80638
3.80573
3.80581
3.80581
3.80644
3.80715
3.80785
3.80871
3.80956
3.81071
3.81197
3.81304
3.81402
3.81524
1
1
1
1
1
1
1
1
1
1
1
1
1
1
1
0.999999
0.999997
1.00001
0.999982
1.00192
1.04074
1.17848
1.52884
2.13839
2.84827
3.44561
3.75853
3.89614
3.87686
3.83641
3.78209
3.71718
3.65866
3.61418
3.58213
3.56774
3.56041
3.5693
3.59259
3.60591
3.60333
3.60276
3.60631
3.61105
3.61733
3.61976
3.62587
3.63868
3.66365
3.69828
3.74119
3.77905
3.79869
3.80107
3.8
3.79693
3.79248
3.79088
3.79037
3.79081
3.79201
3.79364
3.79578
3.79854
3.80108
3.80244
3.80393
3.80637
3.80849
3.81111
3.81341
3.81545
3.81673
3.8171
3.81672
3.81639
3.81632
3.81598
3.81437
3.8114
1
1
1
1
1
1
1
1
1
1
1
1
1
1
1
1
1
1
0.999999
0.999997
1
1.0001
1.00419
1.05376
1.21678
1.64938
2.29079
2.94705
3.30073
3.4889
3.55066
3.545
3.53132
3.52969
3.56091
3.58352
3.61149
3.65399
3.68547
3.69139
3.68183
3.66724
3.65155
3.63771
3.63243
3.63006
3.6342
3.64119
3.66175
3.69947
3.73207
3.75841
3.76899
3.76911
3.76776
3.76604
3.76372
3.76413
3.76605
3.76912
3.77357
3.7786
3.784
3.79028
3.79622
3.80358
3.8109
3.81407
3.81557
3.8169
3.81708
3.81716
3.81711
3.81698
3.81552
3.81311
3.81173
3.81096
3.81016
3.8092
1
1
1
1
1
1
1
1
1
1
1
1
1
1
1
1
1
1
1
1
1
1
1
0.999977
1.00042
1.01023
1.08117
1.30158
1.73497
2.2226
2.68562
3.03023
3.25397
3.42938
3.51196
3.56026
3.59976
3.63829
3.6606
3.66365
3.65797
3.64412
3.62028
3.59526
3.58451
3.59325
3.60824
3.63192
3.65987
3.69951
3.73872
3.7619
3.77139
3.77485
3.7764
3.77877
3.78214
3.78598
3.79075
3.79591
3.80039
3.80307
3.80383
3.80476
3.80607
3.80593
3.80442
3.80449
3.80387
3.80427
3.80353
3.80148
3.80172
3.8031
3.80287
3.80223
3.80352
3.80688
3.80839
3.81147
1
1
1
1
1
1
1
1
1
1
1
1
1
1
1
1
1
1
1
1
1
1
1
0.999999
0.999998
0.999999
1.00002
1.00146
1.01624
1.08252
1.24759
1.5359
1.90483
2.26668
2.59598
2.87403
3.09512
3.24678
3.36402
3.42519
3.45064
3.47637
3.49019
3.51726
3.56052
3.60198
3.64541
3.69054
3.74159
3.79121
3.83331
3.85716
3.86417
3.86583
3.8628
3.85584
3.84965
3.84359
3.83813
3.83259
3.82437
3.81579
3.80715
3.79848
3.78815
3.77926
3.77597
3.77435
3.77472
3.77643
3.7781
3.78002
3.78389
3.78976
3.79536
3.801
3.80694
3.81403
3.81894
3.82187
1
1
1
1
1
1
1
1
1
1
1
1
1
1
1
1
1
1
1
1
1
1
1
1
1
1
1
1
0.999995
1.00006
1.00114
1.00832
1.03698
1.10982
1.248
1.46324
1.74073
2.05997
2.38672
2.69963
2.97354
3.18916
3.37142
3.48512
3.54939
3.60127
3.64465
3.69237
3.74697
3.79573
3.8315
3.85097
3.85147
3.84918
3.84472
3.83605
3.82532
3.80828
3.79084
3.77543
3.7651
3.76272
3.76066
3.761
3.76331
3.76717
3.76972
3.77267
3.77803
3.78534
3.79334
3.7984
3.803
3.80778
3.81144
3.81274
3.81126
3.80853
3.80827
3.81185
1
1
1
1
1
1
1
1
1
1
1
1
1
1
1
1
1
1
1
1
1
1
1
1
1
1
1
1
1
1
1
0.999997
1.00002
1.00022
1.00138
1.0063
1.02253
1.06545
1.15644
1.31634
1.55168
1.84873
2.17758
2.50214
2.77862
3.00644
3.17847
3.32177
3.43033
3.52435
3.57973
3.62986
3.64611
3.66167
3.67337
3.67608
3.68119
3.68394
3.71239
3.73204
3.75436
3.76768
3.78477
3.80106
3.81454
3.82883
3.83975
3.84519
3.84366
3.83978
3.83786
3.83347
3.82487
3.81419
3.80862
3.8064
3.80194
3.78805
3.78189
3.78677
1
1
1
1
1
1
1
1
1
1
1
1
1
1
1
1
1
1
1
1
1
1
1
1
1
1
1
1
1
1
1
1
1
1
1
1
1.00001
1.00008
1.00056
1.0028
1.0111
1.03614
1.09591
1.20917
1.38223
1.60387
1.84989
2.0955
2.32904
2.5389
2.73329
2.90315
3.07069
3.21149
3.34966
3.4604
3.56981
3.64952
3.705
3.73909
3.77438
3.797
3.81064
3.82301
3.82614
3.82985
3.83236
3.83179
3.82834
3.81468
3.79967
3.79142
3.77913
3.76569
3.76428
3.77096
3.78087
3.77997
3.77957
3.78689
1
1
1
1
1
1
1
1
1
1
1
1
1
1
1
1
1
1
1
1
1
1
1
1
1
1
1
1
1
1
1
1
1
1
1
1
1
1
1
1
1
1.00003
1.00024
1.0012
1.00457
1.0139
1.03442
1.07071
1.12517
1.19824
1.2926
1.41073
1.5587
1.73717
1.93857
2.16639
2.39525
2.63586
2.84892
3.05165
3.20857
3.35312
3.4536
3.53666
3.60088
3.63241
3.65553
3.6802
3.68869
3.68577
3.70027
3.7294
3.75932
3.76992
3.77659
3.79717
3.82462
3.83496
3.83583
3.82357
1
1
1
1
1
1
1
1
1
1
1
1
1
1
1
1
1
1
1
1
1
1
1
1
1
1
1
1
1
1
1
1
1
1
1
1
1
1
1
1
1
1
1
1
1
1.00001
1.00003
1.00014
1.00041
1.00102
1.00233
1.00504
1.01069
1.02206
1.04379
1.08308
1.14671
1.24431
1.37997
1.55839
1.77273
2.0145
2.27699
2.53837
2.78978
3.02168
3.22317
3.38321
3.52546
3.64751
3.70011
3.7435
3.78692
3.8097
3.81529
3.82356
3.82736
3.82798
3.82605
3.81034
1
1
1
1
1
1
1
1
1
1
1
1
1
1
1
1
1
1
1
1
1
1
1
1
1
1
1
1
1
1
1
1
1
1
1
1
1
1
1
1
1
1
1
1
1
1
1
1
1
1
1
1
1
1.00002
1.00006
1.0002
1.00061
1.00174
1.00457
1.01136
1.02635
1.05697
1.11395
1.20784
1.34919
1.5423
1.783
2.06287
2.35906
2.65686
2.94662
3.17236
3.33895
3.48291
3.59859
3.65831
3.66011
3.67916
3.71519
3.72038
1
1
1
1
1
1
1
1
1
1
1
1
1
1
1
1
1
1
1
1
1
1
1
1
1
1
1
1
1
1
1
1
1
1
1
1
1
1
1
1
1
1
1
1
1
1
1
1
1
1
1
1
1
1
1
1
1
1
1
1.00001
1.00002
1.0001
1.00039
1.00133
1.00411
1.01149
1.02941
1.06859
1.14426
1.27228
1.46699
1.72557
2.03501
2.37235
2.70443
3.00152
3.26055
3.45345
3.57705
3.69443
1
1
1
1
1
1
1
1
1
1
1
1
1
1
1
1
1
1
1
1
1
1
1
1
1
1
1
1
1
1
1
1
1
1
1
1
1
1
1
1
1
1
1
1
1
1
1
1
1
1
1
1
1
1
1
1
1
1
1
1
1
1
1
1
1
1.00001
1.00003
1.00016
1.00069
1.00257
1.00846
1.02501
1.06596
1.15235
1.30749
1.53745
1.85162
2.22443
2.57816
3.07799
1
1
1
1
1
1
1
1
1
1
1
1
1
1
1
1
1
1
1
1
1
1
1
1
1
1
1
1
1
1
1
1
1
1
1
1
1
1
1
1
1
1
1
1
1
1
1
1
1
1
1
1
1
1
1
1
1
1
1
1
1
1
1
1
1
1
1
1
1
1
1
1.00003
1.00015
1.00081
1.00355
1.01265
1.04047
1.11247
1.2407
1.68535
1
1
1
1
1
1
1
1
1
1
1
1
1
1
1
1
1
1
1
1
1
1
1
1
1
1
1
1
1
1
1
1
1
1
1
1
1
1
1
1
1
1
1
1
1
1
1
1
1
1
1
1
1
1
1
1
1
1
1
1
1
1
1
1
1
1
1
1
1
1
1
1
1
1
1
1.00001
1.00006
1.00051
1.00213
1.02917
1
1
1
1
1
1
1
1
1
1
1
1
1
1
1
1
1
1
1
1
1
1
1
1
1
1
1
1
1
1
1
1
1
1
1
1
1
1
1
1
1
1
1
1
1
1
1
1
1
1
1
1
1
1
1
1
1
1
1
1
1
1
1
1
1
1
1
1
1
1
1
1
1
1
1
1
1
1
0.999998
1.00007
1
1
1
1
1
1
1
1
1
1
1
1
1
1
1
1
1
1
1
1
1
1
1
1
1
1
1
1
1
1
1
1
1
1
1
1
1
1
1
1
1
1
1
1
1
1
1
1
1
1
1
1
1
1
1
1
1
1
1
1
1
1
1
1
1
1
1
1
1
1
1
1
1
1
1
1
1
1
1
1
1
1
1
1
1
1
1
1
1
1
1
1
1
1
1
1
1
1
1
1
1
1
1
1
1
1
1
1
1
1
1
1
1
1
1
1
1
1
1
1
1
1
1
1
1
1
1
1
1
1
1
1
1
1
1
1
1
1
1
1
1
1
1
1
1
1
1
1
1
1
1
1
1
1
1
1
1
1
1
1
1
1
1
1
1
1
1
1
1
1
1
1
1
1
1
1
1
1
1
1
1
1
1
1
1
1
1
1
1
1
1
1
1
1
1
1
1
1
1
1
1
1
1
1
1
1
1
1
1
1
1
1
1
1
1
1
1
1
1
1
1
1
1
1
1
1
1
1
1
1
1
1
1
1
1
1
1
1
1
1
1
1
1
1
1
1
1
1
1
1
1
1
1
1
1
1
1
1
1
1
1
1
1
1
1
1
1
1
1
1
1
1
1
1
1
1
1
1
1
1
1
1
1
1
1
1
1
1
1
1
1
1
1
1
1
1
1
1
1
1
1
1
1
1
1
1
1
1
1
1
1
1
1
1
1
1
1
1
1
1
1
1
1
1
1
1
1
1
1
1
1
1
1
1
1
1
1
1
1
1
1
1
1
1
1
1
1
1
1
1
1
1
1
1
1
1
1
1
1
1
1
1
1
1
1
1
1
1
1
1
1
1
1
1
1
1
1
1
1
1
1
1
1
1
1
1
1
1
1
1
1
1
1
1
1
1
1
1
1
1
1
1
1
1
1
1
1
1
1
1
1
1
1
1
1
1
1
1
1
1
1
1
1
1
1
1
1
1
1
1
1
1
1
1
1
1
1
1
1
1
1
1
1
1
1
1
1
1
1
1
1
1
1
1
1
1
1
1
1
1
1
1
1
1
1
1
1
1
1
1
1
1
1
1
1
1
1
1
1
1
1
1
1
1
1
1
1
1
1
1
1
1
1
1
1
1
1
1
1
1
1
1
1
1
1
1
1
1
1
1
1
1
1
1
1
1
1
1
1
1
1
1
1
1
1
1
1
1
1
1
1
1
1
1
1
1
1
1
1
1
1
1
1
1
1
1
1
1
1
1
1
1
1
1
1
1
1
1
1
1
1
1
1
1
1
1
1
1
1
1
1
1
1
1
1
1
1
1
1
1
1
1
1
1
1
1
1
1
1
1
1
1
1
1
1
1
1
1
1
1
1
1
1
1
1
1
1
1
1
1
1
1
1
1
1
1
1
1
1
1
1
1
1
1
1
1
1
1
1
1
1
1
1
1
1
1
1
1
1
1
1
1
1
1
1
1
1
1
1
1
1
1
1
1
1
1
1
1
1
1
1
1
1
1
1
1
1
1
1
1
1
1
1
1
1
1
1
1
1
1
1
1
1
1
1
1
1
1
1
1
1
1
1
1
1
1
1
1
1
1
1
1
1
1
1
1
1
1
1
1
1
1
1
1
1
1
1
1
1
1
1
1
1
1
1
1
1
1
1
1
1
1
1
1
1
1
1
1
1
1
1
1
1
1
1
1
1
1
1
1
1
1
1
1
1
1
1
1
1
1
1
1
1
1
1
1
1
1
1
1
1
1
1
1
1
1
1
1
1
1
1
1
1
1
1
1
1
1
1
1
1
1
1
1
1
1
1
1
1
1
1
1
1
1
1
1
1
1
1
1
1
1
1
1
1
1
1
1
1
1
1
1
1
1
1
1
1
1
1
1
1
1
1
1
1
1
1
1
1
1
1
1
1
1
1
1
1
1
1
1
1
1
1
1
1
1
1
1
1
1
1
1
1
1
1
1
1
1
1
1
1
1
1
1
1
1
1
1
1
1
1
1
1
1
1
1
1
1
1
1
1
1
1
1
1
1
1
1
1
1
1
1
1
1
1
1
1
1
1
1
1
1
1
1
1
1
1
1
1
1
1
1
1
1
1
1
1
1
1
1
1
1
1
1
1
1
1
1
1
1
1
1
1
1
1
1
1
1
1
1
1
1
1
1
1
1
1
1
1
1
1
1
1
1
1
1
1
1
1
1
1
1
1
1
1
1
1
1
1
1
1
1
1
1
1
1
1
1
1
1
1
1
1
1
1
1
1
1
1
1
1
1
1
1
1
1
1
1
1
1
1
1
1
1
1
1
1
1
1
1
1
1
1
1
1
1
1
1
1
1
1
1
1
1
1
1
1
1
1
1
1
1
1
1
1
1
1
1
1
1
1
1
1
1
1
1
1
1
1
1
1
1
1
1
1
1
1
1
1
1
1
1
1
1
1
1
1
1
1
1
1
1
1
1
1
1
1
1
1
1
1
1
1
1
1
1
1
1
1
1
1
1
1
1
1
1
1
1
1
1
1
1
1
1
1
1
1
1
1
1
1
1
1
1
1
1
1
1
1
1
1
1
1
1
1
1
1
1
1
1
1
1
1
1
1
1
1
1
1
1
1
1
1
1
1
1
1
1
1
1
1
1
1
1
1
1
1
1
1
1
1
1
1
1
1
1
1
1
1
1
1
1
1
1
1
1
1
1
1
1
1
1
1
1
1
1
1
1
1
1
1
1
1
1
1
1
1
1
1
1
1
1
1
1
1
1
1
1
1
1
1
1
1
1
1
1
1
1
1
1
1
1
1
1
1
1
1
1
1
1
1
1
1
1
1
1
1
1
1
1
1
1
1
1
1
1
1
1
1
1
1
1
1
1
1
1
1
1
1
1
1
1
1
1
1
1
1
1
1
1
1
1
1
1
1
1
1
1
1
1
1
1
1
1
1
1
1
1
1
1
1
1
1
1
1
1
1
1
1
1
1
1
1
1
1
1
1
1
1
1
1
1
1
1
1
1
1
1
1
1
1
1
1
1
1
1
1
1
1
1
1
1
1
1
1
1
1
1
1
1
1
1
1
1
1
1
1
1
1
1
1
1
1
1
1
1
1
1
1
1
1
1
1
1
1
1
1
1
1
1
1
1
1
1
1
1
1
1
1
1
1
1
1
1
1
1
1
1
1
1
1
1
1
1
1
1
1
1
1
1
1
1
1
1
1
1
1
1
1
1
1
1
1
1
1
1
1
1
1
1
1
1
1
1
1
1
1
1
1
1
1
1
1
1
1
1
1
1
1
1
1
1
1
1
1
1
1
1
1
1
1
1
1
1
1
1
1
1
1
1
1
1
1
1
1
1
1
1
1
1
1
1
1
1
1
1
1
1
1
1
1
1
1
1
1
1
1
1
1
1
1
1
1
1
1
1
1
1
1
1
1
1
1
1
1
1
1
1
1
1
)
;

boundaryField
{
    inlet
    {
        type            fixedValue;
        value           uniform 1;
    }
    outlet
    {
        type            zeroGradient;
    }
    bottom
    {
        type            symmetryPlane;
    }
    top
    {
        type            symmetryPlane;
    }
    obstacle
    {
        type            zeroGradient;
    }
    defaultFaces
    {
        type            empty;
    }
}


// ************************************************************************* //
