/*--------------------------------*- C++ -*----------------------------------*\
| =========                 |                                                 |
| \\      /  F ield         | OpenFOAM: The Open Source CFD Toolbox           |
|  \\    /   O peration     | Version:  2206                                  |
|   \\  /    A nd           | Website:  www.openfoam.com                      |
|    \\/     M anipulation  |                                                 |
\*---------------------------------------------------------------------------*/
FoamFile
{
    version     2.0;
    format      ascii;
    arch        "LSB;label=32;scalar=64";
    class       volScalarField;
    location    "0.16";
    object      T;
}
// * * * * * * * * * * * * * * * * * * * * * * * * * * * * * * * * * * * * * //

dimensions      [0 0 0 1 0 0 0];

internalField   nonuniform List<scalar> 
4800
(
1
1
1
1
1
1
1
1
1
1
1
1
1
1
1
1
1
1
1
1
1
1
1
1
1
1
1
1
1
1
1
1
1
1
1
1
1
1
1
1
1
1
1
1
1
1
1
1
1
1
1
1
1
1
1
1
1
1
1
1
1
1
1
1
1
1
1
1
1
1
1
1
1
1
1
1
1
1
1
1
1
1
1
1
1
1
1
1
1
1
1
1
1
1
1
1
1
1
1
1
1
1
1
1
1
1
1
1
1
1
1
1
1
1
1
1
1
1
1
1
1
1
1
1
1
1
1
1
1
1
1
1
1
1
1
1
1
1
1
1
1
1
1
1
1
1
1
1
1
1
1
1
1
1
1
1
1
1
1
1
1
1
1
1
1
1
1
1
1
1
1
1
1
1
1
1
1
1
1
1
1
1
1
1
1
1
1
1
1
1
1
1
1
1
1
1
1
1
1
1
1
1
1
1
1
1
1
1
1
1
1
1
1
1
1
1
1
1
1
1
1
1
1
1
1
1
1
1
1
1
1
1
1
1
1
1
1
1
1
1
1
1
1
1
1
1
1
1
1
1
1
1
1
1
1
1
1
1
1
1
1
1
1
1
1
1
1
1
1
1
1
1
1
1
1
1
1
1
1
1
1
1
1
1
1
1
1
1
1
1
1
1
1
1
1
1
1
1
1
1
1
1
1
1
1
1
1
1
1
1
1
1
1
1
1
1
1
1
1
1
1
1
1
1
1
1
1
1
1
1
1
1
1
1
1
1
1
1
1
1
1
1
1
1
1
1
1
1
1
1
1
1
1
1
1
1
1
1
1
1
1
1
1
1
1
1
1
1
1
1
1
1
1
1
1
1
1
1
1
1
1
1
1
1
1
1
1
1
1
1
1
1
1
1
1
1
1
1
1
1
1
1
1
1
1
1
1
1
1
1
1
1
1
1
1
1
1
1
1
1
1
1
1
1
1
1
1
1
1
1
1
1
1
1
1
1
1
1
1
1
1
1
1
1
1
1
1
1
1
1
1
1
1
1
1
1
1
1
1
1
1
1
1
1
1
1
1
1
1
1
1
1
1
1
1
1
1
1
1
1
1
1
1
1
1
1
1
1
1
1
1
1
1
1
1
1
1
1
1
1
1
1
1
1
1
1
1
1
1
1
1
1
1
1
1
1
1
1
1
1
1
1
1
1
1
1
1
1
1
1
1
1
1
1
1
1
1
1
1
1
1
1
1
1
1
1
1
1
1
1
1
1
1
1
1
1
1
1
1
1
1
1
1
1
1
1
1
1
1
1
1
1
1
1
1
1
1
1
1
1
1
1
1
1
1
1
1
1
1
1
1
1
1
1
1
1
1
1
1
1
1
1
1
1
1
1
1
1
1
1
1
1
1
1
1
1
1
1
1
1
1
1
1
1
1
1
1
1
1
1
1
1
1
1
1
1
1
1
1
1
1
1
1
1
1
1
1
1
1
1
1
1
1
1
1
1
1
1
1
1
1
1
1
1
1
1
1
1
1
1
1
1
1
1
1
1
1
1
1
1
1
1
1
1
1
1
1
1
1
1
1
1
1
1
1
1
1
1
1
1
1
1
1
1
1
1
1
1
1
1
1
1
1
1
1
1
1
1
1
1
1
1
1
1
1
1
1
1
1
1
1
1
1
1
1
1
1
1
1
1
1
1
1
1
1
1
1
1
1
1
1
1
1
1
1
1
1
1
1
1
1
1
1
1
1
1
1
1
1
1
1
1
1
1
1
1
1
1
1
1
1
1
1
1
1
1
1
1
1
1
1
1
1
1
1
1
1
1
1
1
1
1
1
1
1
1
1
1
1
1
1
1
1
1
1
1
1
1
1
1
1
1
1
1
1
1
1
1
1
1
1
1
1
1
1
1
1
1
1
1
1
1
1
1
1
1
1
1
1
1
1
1
1
1
1
1
1
1
1
1
1
1
1
1
1
1
1
1
1
1
1
1
1
1
1
1
1
1
1
1
1
1
1
1
1
1
1
1
1
1
1
1
1
1
1
1
1
1
1
1
1
1
1
1
1
1
1
1
1
1
1
1
1
1
1
1
1
1
1
1
1
1
1
1
1
1
1
1
1
1
1
1
1
1
1
1
1
1
1
1
1
1
1
1
1
1
1
1
1
1
1
1
1
1
1
1
1
1
1
1
1
1
1
1
1
1
1
1
1
1
1
1
1
1
1
1
1
1
1
1
1
1
1
1
1
1
1
1
1
1
1
1
1
1
1
1
1
1
1
1
1
1
1
1
1
1
1
1
1
1
1
1
1
1
1
1
1
1
1
1
1
1
1
1
1
1
1
1
1
1
1
1
1
1
1
1
1
1
1
1
1
1
1
1
1
1
1
1
1
1
1
1
1
1
1
1
1
1
1
1
1
1
1
1
1
1
1
1
1
1
1
1
1
1
1
1
1
1
1
1
1
1
1
1
1
1
1
1
1
1
1
1
1
1
1
1
1
1
1
1
1
1
1
1
1
1
1
1
1
1
1
1
1
1
1
1
1
1
1
1
1
1
1
1
1
1
1
1
1
1
1
1
1
1
1
1
1
1
1
1
1
1
1
1
1
1
1
1
1
1
1
1
1
1
1
1
1
1
1
1
1
1
1
1
1
1
1
1
1
1
1
1
1
1
1
1
1
1
1
1
1
1
1
1
1
1
1
1
1
1
1
1
1
1
1
1
1
1
1
1
1
1
1
1
1
1
1
1
1
1
1
1
1
1
1
1
1
1
1
1
1
1
1
1
1
1
1
1
1
1
1
1
1
1
1
1
1
1
1
1
1
1
1
1
1
1
1
1
1
1
1
1
1
1
1
1
1
1
1
1
1
1
1
1
1
1
1
1
1
1
1
1
1
1
1
1
1
1
1
1
1
1
1
1
1
1
1
1
1
1
1
1
1
1
1
1
1
1
1
1
1
1
1
1
1
1
1
1
1
1
1
1
1
1
1
1
1
1
1
1
1
1
1
1
1
1
1
1
1
1
1
1
1
1
1
1
1
1
1
1
1
1
1
1
1
1
1
1
1
1
1
1
1
1
1
1
1
1
1
1
1
1
1
1
1
1
1
1
1
1
1
1
1
1
1
1
1
1
1
1
1
1
1
1
1
1
1
1
1
1
1
1
1
1
1
1
1
1
1
1
1
1
1
1
1
1
1
1
1
1
1
1
1
1
1
1
1
1
1
1
1
1
1
1
1
1
1
1
1
1
1
1
1
1
1
1
1
1
1
1
1
1
1
1
1
1
1
1
1
1
1
1
1
1
1
1
1
1
1
1
1
1
1
1
1
1
1
1
1
1
1
1
1
1
1
1
1
1
1
1
1
1
1
1
1
1
1
1
1
1
1
1
1
1
1
1
1
1
1
1
1
1
1
1
1
1
1
1
1
1
1
1
1
1
1
1
1
1
1
1
1
1
1
1
1
1
1
1
1
1
1
1
1
1
1
1
1
1
1
1
1
1
1
1
1
1
1
1
1
1
1
1
1
1
1
1
1
1
1
1
1
1
1
1
1
1
1
1
1
1
1
1
1
1
1
1
1
1
1
1
1
1
1
1
1
1
1
1
1
1
1
1
1
1
1
1
1
1
1
1
1.07336
1.16462
1.26136
1.36028
1.43168
1.50235
1.5682
1.60225
1.63926
1.6582
1.65291
1.63412
1.5981
1.55826
1.52577
1.5098
1.49274
1.48514
1.48586
1.48921
1.49467
1.50012
1.50385
1.50661
1.50889
1.5101
1.5111
1.51257
1.51413
1.51654
1.51843
1.51856
1.51817
1.51728
1.51635
1.5155
1.51502
1.51502
1.5152
1.51532
1.51559
1.51634
1.51765
1.51897
1.51981
1.52016
1.5203
1.5205
1.52075
1.52102
1.52108
1.52094
1.52064
1.5203
1.51991
1.51966
1.51968
1.52003
1.52057
1.52099
1.52103
1.52101
1.52093
1.52079
1.52068
1.52065
1.52069
1.52086
1.52121
1.52174
1.52211
1.52227
1.5224
1.52249
1.52253
1.52257
1.52266
1.52285
1.52308
1.5231
1.00037
1.00697
1.01722
1.04589
1.10669
1.15876
1.23154
1.2978
1.35626
1.40659
1.44722
1.47866
1.49296
1.52969
1.54112
1.53853
1.53602
1.53002
1.52431
1.51845
1.51599
1.51156
1.5082
1.5073
1.50835
1.51066
1.51249
1.51417
1.51602
1.5185
1.51974
1.51972
1.51945
1.51926
1.51924
1.51947
1.51993
1.52026
1.52016
1.51963
1.51902
1.51896
1.51911
1.51964
1.52011
1.52006
1.51999
1.52017
1.52075
1.52147
1.52189
1.52192
1.52179
1.52162
1.52148
1.52149
1.52162
1.52195
1.52243
1.52282
1.52289
1.52287
1.52272
1.52243
1.52216
1.52198
1.52192
1.52194
1.52201
1.52208
1.52218
1.52226
1.5223
1.52231
1.52232
1.52236
1.52247
1.52268
1.52299
1.52305
1
1
1
0.999988
1.00031
1.00168
1.00842
1.03002
1.07173
1.15783
1.25805
1.38305
1.48901
1.55414
1.59093
1.58712
1.58182
1.57322
1.56314
1.54673
1.5329
1.52499
1.51916
1.5177
1.51783
1.5191
1.52182
1.52353
1.52343
1.52349
1.52372
1.52379
1.52409
1.52546
1.52698
1.52802
1.52868
1.52881
1.52857
1.52771
1.52665
1.52616
1.52593
1.52559
1.52519
1.52471
1.52425
1.52416
1.52432
1.52469
1.52501
1.52509
1.525
1.52485
1.52484
1.52495
1.52526
1.52568
1.52613
1.52641
1.52642
1.52634
1.52612
1.52574
1.52538
1.52514
1.52497
1.52484
1.5247
1.52453
1.52437
1.5243
1.5242
1.524
1.52381
1.52374
1.52376
1.52386
1.52403
1.52403
1
1
1
1
1
0.999998
1
1.00001
1.00008
1.0017
1.01072
1.05564
1.18265
1.31274
1.45059
1.50613
1.55377
1.56101
1.55736
1.56081
1.56523
1.56375
1.5542
1.54736
1.54258
1.53912
1.53594
1.53231
1.52987
1.52951
1.52986
1.53081
1.53224
1.53417
1.53588
1.53676
1.53715
1.53734
1.53749
1.5374
1.53696
1.53652
1.53588
1.53505
1.53417
1.53328
1.53255
1.53228
1.53236
1.53229
1.53207
1.53167
1.53114
1.53064
1.53044
1.53041
1.53043
1.53053
1.53071
1.53093
1.53105
1.53104
1.5309
1.53066
1.53042
1.53017
1.52991
1.52962
1.52929
1.529
1.52876
1.52849
1.52814
1.52776
1.52736
1.52705
1.52693
1.5269
1.5269
1.5268
1
1
1
1
1
1
1
1
1
1
0.999997
1.00001
1.00197
1.01497
1.08174
1.21941
1.34362
1.45909
1.51464
1.57249
1.58652
1.58409
1.57953
1.57174
1.56414
1.55232
1.54779
1.5448
1.54123
1.53854
1.5382
1.53851
1.54008
1.54214
1.54214
1.54198
1.54139
1.54085
1.54096
1.54179
1.54271
1.54315
1.54321
1.54304
1.54255
1.5418
1.54127
1.54129
1.54136
1.54117
1.5406
1.53977
1.53891
1.53819
1.53779
1.53757
1.53732
1.53704
1.53673
1.53644
1.53621
1.53598
1.53575
1.53554
1.5353
1.53503
1.53475
1.5345
1.53426
1.53404
1.53381
1.5335
1.53314
1.53273
1.53223
1.53184
1.53162
1.53145
1.53136
1.53115
1
1
1
1
1
1
1
1
1
1
1
1
1
0.999988
1.00015
1.00458
1.02493
1.11178
1.25309
1.3792
1.4737
1.51224
1.5483
1.55234
1.55334
1.55652
1.56062
1.55988
1.55548
1.55142
1.54795
1.54621
1.54545
1.54491
1.5437
1.5432
1.5436
1.54354
1.54357
1.54414
1.54505
1.54549
1.54568
1.54572
1.54587
1.5459
1.54598
1.54622
1.54649
1.54646
1.54614
1.54552
1.54487
1.54441
1.54396
1.54353
1.54306
1.54245
1.54168
1.54097
1.54062
1.54051
1.54041
1.54027
1.54002
1.53973
1.53937
1.53905
1.53881
1.5386
1.53841
1.5382
1.53794
1.5375
1.53702
1.53669
1.5365
1.53631
1.53618
1.53589
1
1
1
1
1
1
1
1
1
1
1
1
1
1
0.999999
1
0.999994
1.00059
1.0096
1.04314
1.15321
1.28541
1.40451
1.48019
1.51808
1.55508
1.55955
1.55871
1.55737
1.55505
1.55137
1.54724
1.54711
1.54665
1.54622
1.5453
1.54367
1.54326
1.54349
1.54417
1.54526
1.54576
1.54561
1.54518
1.54486
1.54504
1.54565
1.54629
1.54653
1.54657
1.5466
1.54664
1.54667
1.54673
1.54675
1.54641
1.54591
1.54528
1.54469
1.5445
1.54448
1.54451
1.5445
1.54445
1.54433
1.54401
1.54351
1.5431
1.54282
1.5426
1.54242
1.54226
1.54204
1.54161
1.54116
1.54086
1.54069
1.54057
1.54045
1.54004
1
1
1
1
1
1
1
1
1
1
1
1
1
1
1
1
1
1
0.999996
1.00005
1.00208
1.01794
1.069
1.20366
1.32646
1.44086
1.48683
1.51246
1.52762
1.53298
1.53926
1.54596
1.54891
1.54851
1.54704
1.54526
1.54434
1.54485
1.5456
1.54597
1.54636
1.54648
1.54602
1.54489
1.54428
1.54414
1.54429
1.5446
1.54475
1.54457
1.54429
1.54438
1.54507
1.54613
1.54681
1.54692
1.54688
1.54659
1.54645
1.54652
1.54665
1.54683
1.54686
1.54682
1.54667
1.54629
1.54583
1.54549
1.54525
1.54504
1.54482
1.5446
1.54436
1.54409
1.54384
1.54368
1.54359
1.5435
1.54338
1.54304
1
1
1
1
1
1
1
1
1
1
1
1
1
1
1
1
1
1
1
1
1
1
1.00026
1.00636
1.03469
1.11384
1.25407
1.37479
1.46705
1.49435
1.51687
1.5342
1.54127
1.54078
1.53805
1.53816
1.53989
1.54112
1.54199
1.54298
1.54419
1.5457
1.54661
1.54663
1.54561
1.54437
1.54339
1.54304
1.54297
1.54259
1.54193
1.54188
1.54277
1.54443
1.54506
1.54497
1.54492
1.54493
1.54516
1.54567
1.54637
1.54695
1.54718
1.5472
1.54695
1.54651
1.54612
1.54585
1.54568
1.54558
1.54546
1.5453
1.54514
1.54499
1.54485
1.54487
1.54479
1.54465
1.54456
1.54435
1
1
1
1
1
1
1
1
1
1
1
1
1
1
1
1
1
1
1
1
1
1
1
0.999997
1.00006
1.00121
1.01723
1.06427
1.17894
1.31518
1.41902
1.48554
1.5036
1.51555
1.51966
1.52092
1.52683
1.53094
1.53517
1.53682
1.53767
1.53903
1.54077
1.5417
1.54223
1.54292
1.54346
1.54349
1.54342
1.54296
1.54176
1.54111
1.5413
1.54214
1.5426
1.54257
1.54224
1.54215
1.54242
1.54322
1.54433
1.54509
1.54544
1.54551
1.54545
1.54539
1.54536
1.54537
1.54544
1.54551
1.54555
1.54557
1.54555
1.54548
1.54545
1.5454
1.54535
1.54524
1.54511
1.54492
1
1
1
1
1
1
1
1
1
1
1
1
1
1
1
1
1
1
1
1
1
1
1
1
1
0.999998
1.00001
1.00034
1.00543
1.04193
1.11483
1.24487
1.36799
1.47287
1.50727
1.51125
1.51995
1.52138
1.52447
1.52639
1.52562
1.52567
1.52702
1.53072
1.53452
1.5367
1.53809
1.53958
1.54057
1.54072
1.54031
1.54053
1.54118
1.54162
1.54163
1.54122
1.5402
1.53953
1.53953
1.54015
1.54154
1.54262
1.54288
1.54297
1.54311
1.54332
1.54358
1.54387
1.54417
1.54438
1.54454
1.54475
1.54505
1.54517
1.54523
1.54542
1.54557
1.54559
1.54539
1.54515
1
1
1
1
1
1
1
1
1
1
1
1
1
1
1
1
1
1
1
1
1
1
1
1
1
1
1
1
0.999998
1.00015
1.00155
1.0192
1.08036
1.20379
1.33246
1.43472
1.49443
1.51274
1.51959
1.52489
1.52119
1.51989
1.52011
1.52118
1.52423
1.52614
1.52753
1.52998
1.5321
1.534
1.53585
1.53694
1.53806
1.53881
1.53882
1.53856
1.53801
1.53781
1.538
1.53852
1.5394
1.54032
1.54047
1.54041
1.54039
1.5405
1.54085
1.54143
1.542
1.54239
1.54271
1.54307
1.5435
1.5439
1.5442
1.5446
1.54498
1.54506
1.54502
1.545
1
1
1
1
1
1
1
1
1
1
1
1
1
1
1
1
1
1
1
1
1
1
1
1
1
1
1
1
1
1
0.999998
1.00004
1.00082
1.00911
1.06414
1.15999
1.28933
1.39571
1.48275
1.51686
1.52083
1.52512
1.52637
1.52383
1.52281
1.52257
1.52279
1.52349
1.52433
1.52513
1.52694
1.52903
1.53102
1.53292
1.53386
1.53422
1.53383
1.53389
1.5344
1.53552
1.53679
1.53769
1.53801
1.53804
1.53814
1.53836
1.53869
1.53913
1.53955
1.53989
1.54018
1.54053
1.5411
1.54175
1.54232
1.54295
1.54343
1.54362
1.54374
1.54401
1
1
1
1
1
1
1
1
1
1
1
1
1
1
1
1
1
1
1
1
1
1
1
1
1
1
1
1
1
1
1
1
0.999999
1.00001
1.00058
1.00467
1.0384
1.13021
1.26059
1.37606
1.46246
1.5075
1.52047
1.52494
1.52853
1.52869
1.52822
1.52686
1.52478
1.5231
1.52304
1.52437
1.52602
1.52733
1.52776
1.52783
1.5282
1.52918
1.53046
1.53205
1.53346
1.53421
1.53424
1.53444
1.53486
1.53546
1.53622
1.53699
1.53756
1.53786
1.53805
1.53824
1.53856
1.53915
1.53994
1.54071
1.54121
1.54146
1.54164
1.54215
1
1
1
1
1
1
1
1
1
1
1
1
1
1
1
1
1
1
1
1
1
1
1
1
1
1
1
1
1
1
1
1
1
1
1
0.999999
1.00024
1.00306
1.02504
1.12287
1.24785
1.36023
1.44
1.49758
1.52116
1.52528
1.52694
1.52876
1.52916
1.52872
1.52777
1.52688
1.52702
1.52705
1.52659
1.52538
1.52495
1.52565
1.52696
1.52818
1.52908
1.52962
1.53008
1.53057
1.53116
1.53195
1.53294
1.53386
1.53445
1.53475
1.53497
1.53522
1.53563
1.53631
1.53729
1.53826
1.5389
1.53928
1.53956
1.54016
1
1
1
1
1
1
1
1
1
1
1
1
1
1
1
1
1
1
1
1
1
1
1
1
1
1
1
1
1
1
1
1
1
1
1
1
1
0.999999
1.00013
1.00324
1.01959
1.10107
1.23746
1.36627
1.43842
1.48441
1.50849
1.52118
1.5251
1.5274
1.52799
1.52794
1.5284
1.52917
1.52909
1.52797
1.52708
1.52696
1.52691
1.52702
1.52724
1.52715
1.52698
1.52704
1.52758
1.52863
1.5298
1.53067
1.5311
1.53133
1.53159
1.53191
1.53239
1.53317
1.53422
1.53521
1.53591
1.53649
1.53697
1.53794
1
1
1
1
1
1
1
1
1
1
1
1
1
1
1
1
1
1
1
1
1
1
1
1
1
1
1
1
1
1
1
1
1
1
1
1
1
1
1
1
1.00007
1.00259
1.01894
1.09322
1.24063
1.38089
1.45001
1.48075
1.49884
1.51312
1.51813
1.51967
1.52255
1.5251
1.52611
1.52645
1.52675
1.52728
1.52795
1.52844
1.52861
1.5282
1.52699
1.52618
1.52623
1.52689
1.52778
1.52829
1.52852
1.52873
1.52889
1.52908
1.52952
1.53024
1.53111
1.53198
1.53277
1.53343
1.53401
1.53517
1
1
1
1
1
1
1
1
1
1
1
1
1
1
1
1
1
1
1
1
1
1
1
1
1
1
1
1
1
1
1
1
1
1
1
1
1
1
1
1
1
1
1.00007
1.00234
1.02375
1.1
1.24702
1.38883
1.4764
1.49735
1.50972
1.51052
1.51365
1.51501
1.51614
1.51866
1.52144
1.52345
1.52551
1.5269
1.52722
1.52674
1.52571
1.52542
1.52556
1.52622
1.52694
1.52735
1.52747
1.52744
1.52743
1.52751
1.52782
1.52829
1.5288
1.52946
1.53016
1.53078
1.53131
1.53245
1
1
1
1
1
1
1
1
1
1
1
1
1
1
1
1
1
1
1
1
1
1
1
1
1
1
1
1
1
1
1
1
1
1
1
1
1
1
1
1
1
1
1
1
1.00014
1.00262
1.02986
1.11387
1.26495
1.407
1.49209
1.51366
1.5192
1.51814
1.51531
1.51667
1.51893
1.52051
1.52177
1.52274
1.52325
1.52315
1.52318
1.52365
1.52445
1.52517
1.52565
1.52599
1.52609
1.52608
1.52617
1.52648
1.52696
1.52736
1.52785
1.52847
1.52887
1.52914
1.52941
1.53035
1
1
1
1
1
1
1
1
1
1
1
1
1
1
1
1
1
1
1
1
1
1
1
1
1
1
1
1
1
1
1
1
1
1
1
1
1
1
1
1
1
1
1
1
1
1
1.00025
1.00358
1.03898
1.14186
1.30526
1.43112
1.49856
1.52146
1.52321
1.5265
1.52724
1.52613
1.52418
1.52291
1.52161
1.52132
1.52134
1.52176
1.52256
1.52327
1.52361
1.52393
1.52446
1.52494
1.52515
1.52557
1.52618
1.52655
1.52705
1.52743
1.52766
1.52782
1.52806
1.5289
1
1
1
1
1
1
1
1
1
1
1
1
1
1
1
1
1
1
1
1
1
1
1
1
1
1
1
1
1
1
1
1
1
1
1
1
1
1
1
1
1
1
1
1
1
1
1
1
1.00048
1.00625
1.06455
1.19447
1.33706
1.44336
1.50103
1.52411
1.52884
1.53
1.52939
1.52814
1.52639
1.52449
1.52333
1.52351
1.52428
1.52428
1.52377
1.52326
1.52344
1.52365
1.52385
1.52419
1.52468
1.52519
1.52579
1.52631
1.52659
1.52681
1.52721
1.52812
1
1
1
1
1
1
1
1
1
1
1
1
1
1
1
1
1
1
1
1
1
1
1
1
1
1
1
1
1
1
1
1
1
1
1
1
1
1
1
1
1
1
1
1
1
1
1
1
1
1.00002
1.00139
1.01299
1.09082
1.25194
1.39272
1.46594
1.49962
1.51738
1.5244
1.52525
1.52529
1.52433
1.52455
1.52575
1.52715
1.52721
1.52636
1.52541
1.5251
1.52487
1.52451
1.52424
1.52416
1.52429
1.52454
1.52496
1.52555
1.52598
1.52639
1.52712
1
1
1
1
1
1
1
1
1
1
1
1
1
1
1
1
1
1
1
1
1
1
1
1
1
1
1
1
1
1
1
1
1
1
1
1
1
1
1
1
1
1
1
1
1
1
1
1
1
1
1
1.00008
1.00331
1.02973
1.14577
1.31453
1.45238
1.48716
1.50114
1.51257
1.51946
1.51849
1.51801
1.5203
1.52375
1.52558
1.52544
1.52495
1.52522
1.52581
1.52596
1.52565
1.52513
1.52475
1.52433
1.52432
1.52467
1.52501
1.52527
1.52579
1
1
1
1
1
1
1
1
1
1
1
1
1
1
1
1
1
1
1
1
1
1
1
1
1
1
1
1
1
1
1
1
1
1
1
1
1
1
1
1
1
1
1
1
1
1
1
1
1
1
1
1
1.00001
1.00035
1.00962
1.06324
1.21393
1.3855
1.47692
1.5193
1.52584
1.52307
1.51897
1.52026
1.52059
1.52078
1.52136
1.52111
1.52189
1.52415
1.52592
1.52629
1.5259
1.5251
1.52441
1.5244
1.52452
1.52469
1.52479
1.52486
1
1
1
1
1
1
1
1
1
1
1
1
1
1
1
1
1
1
1
1
1
1
1
1
1
1
1
1
1
1
1
1
1
1
1
1
1
1
1
1
1
1
1
1
1
1
1
1
1
1
1
1
1
1
1.00006
1.00157
1.02465
1.13647
1.30058
1.43573
1.51203
1.52644
1.52796
1.53133
1.5291
1.52392
1.5211
1.52081
1.52187
1.5244
1.52526
1.52516
1.52512
1.52469
1.52429
1.5243
1.52453
1.52502
1.52503
1.52469
1
1
1
1
1
1
1
1
1
1
1
1
1
1
1
1
1
1
1
1
1
1
1
1
1
1
1
1
1
1
1
1
1
1
1
1
1
1
1
1
1
1
1
1
1
1
1
1
1
1
1
1
1
1
1
1
1.00037
1.0074
1.07285
1.2163
1.38909
1.47222
1.51034
1.52887
1.52985
1.52855
1.52605
1.52596
1.52685
1.52663
1.52578
1.52447
1.52405
1.52375
1.52367
1.52388
1.52463
1.52556
1.52598
1.5256
1
1
1
1
1
1
1
1
1
1
1
1
1
1
1
1
1
1
1
1
1
1
1
1
1
1
1
1
1
1
1
1
1
1
1
1
1
1
1
1
1
1
1
1
1
1
1
1
1
1
1
1
1
1
1
1
1
1.00005
1.0023
1.02509
1.14614
1.35348
1.44782
1.49695
1.51766
1.51963
1.52141
1.52737
1.53038
1.52987
1.52758
1.52511
1.52386
1.52355
1.52335
1.52351
1.52456
1.52591
1.52672
1.52675
1
1
1
1
1
1
1
1
1
1
1
1
1
1
1
1
1
1
1
1
1
1
1
1
1
1
1
1
1
1
1
1
1
1
1
1
1
1
1
1
1
1
1
1
1
1
1
1
1
1
1
1
1
1
1
1
1
1
1.00001
1.0005
1.01089
1.10716
1.27888
1.43532
1.49455
1.50414
1.51263
1.52108
1.52658
1.52737
1.52574
1.52453
1.52417
1.52402
1.52377
1.52343
1.52371
1.52466
1.52598
1.52673
1
1
1
1
1
1
1
1
1
1
1
1
1
1
1
1
1
1
1
1
1
1
1
1
1
1
1
1
1
1
1
1
1
1
1
1
1
1
1
1
1
1
1
1
1
1
1
1
1
1
1
1
1
1
1
1
1
1
1
1
1.00013
1.00641
1.05692
1.19757
1.38489
1.49145
1.51923
1.52706
1.53046
1.52862
1.52478
1.52477
1.52528
1.52544
1.52516
1.5244
1.52393
1.5241
1.52458
1.52532
1
1
1
1
1
1
1
1
1
1
1
1
1
1
1
1
1
1
1
1
1
1
1
1
1
1
1
1
1
1
1
1
1
1
1
1
1
1
1
1
1
1
1
1
1
1
1
1
1
1
1
1
1
1
1
1
1
1
1
1
1
1.00006
1.00163
1.02486
1.15525
1.35241
1.45625
1.51089
1.5295
1.52667
1.52357
1.5251
1.52771
1.52908
1.52901
1.52848
1.52714
1.52595
1.52508
1.52442
1
1
1
1
1
1
1
1
1
1
1
1
1
1
1
1
1
1
1
1
1
1
1
1
1
1
1
1
1
1
1
1
1
1
1
1
1
1
1
1
1
1
1
1
1
1
1
1
1
1
1
1
1
1
1
1
1
1
1
1
1
1
1.00001
1.00063
1.0132
1.11982
1.31348
1.46297
1.51259
1.50607
1.50773
1.51471
1.52189
1.5268
1.52847
1.52925
1.52967
1.52926
1.5278
1.5251
1
1
1
1
1
1
1
1
1
1
1
1
1
1
1
1
1
1
1
1
1
1
1
1
1
1
1
1
1
1
1
1
1
1
1
1
1
1
1
1
1
1
1
1
1
1
1
1
1
1
1
1
1
1
1
1
1
1
1
1
1
1
1
1
1.00023
1.00998
1.08623
1.26243
1.42609
1.51167
1.52156
1.51918
1.51796
1.51971
1.52312
1.52476
1.52697
1.52818
1.52809
1.5263
1
1
1
1
1
1
1
1
1
1
1
1
1
1
1
1
1
1
1
1
1
1
1
1
1
1
1
1
1
1
1
1
1
1
1
1
1
1
1
1
1
1
1
1
1
1
1
1
1
1
1
1
1
1
1
1
1
1
1
1
1
1
1
1
1
1.00016
1.00474
1.05181
1.20938
1.42456
1.51323
1.52377
1.52819
1.52836
1.52771
1.52589
1.52572
1.52605
1.52673
1.5268
1
1
1
1
1
1
1
1
1
1
1
1
1
1
1
1
1
1
1
1
1
1
1
1
1
1
1
1
1
1
1
1
1
1
1
1
1
1
1
1
1
1
1
1
1
1
1
1
1
1
1
1
1
1
1
1
1
1
1
1
1
1
1
1
1
1
1.00005
1.00173
1.0407
1.22059
1.39385
1.48664
1.52063
1.53046
1.53063
1.5292
1.5272
1.52597
1.52561
1.52649
1
1
1
1
1
1
1
1
1
1
1
1
1
1
1
1
1
1
1
1
1
1
1
1
1
1
1
1
1
1
1
1
1
1
1
1
1
1
1
1
1
1
1
1
1
1
1
1
1
1
1
1
1
1
1
1
1
1
1
1
1
1
1
1
1
1
1
1.00002
1.00206
1.03333
1.19163
1.38942
1.48472
1.50651
1.51874
1.52533
1.52556
1.52394
1.52171
1.52357
1
1
1
1
1
1
1
1
1
1
1
1
1
1
1
1
1
1
1
1
1
1
1
1
1
1
1
1
1
1
1
1
1
1
1
1
1
1
1
1
1
1
1
1
1
1
1
1
1
1
1
1
1
1
1
1
1
1
1
1
1
1
1
1
1
1
1
1
1.00002
1.0012
1.03038
1.1569
1.36687
1.48408
1.53176
1.53358
1.53113
1.52372
1.51543
1.51876
1
1
1
1
1
1
1
1
1
1
1
1
1
1
1
1
1
1
1
1
1
1
1
1
1
1
1
1
1
1
1
1
1
1
1
1
1
1
1
1
1
1
1
1
1
1
1
1
1
1
1
1
1
1
1
1
1
1
1
1
1
1
1
1
1
1
1
1
1
1.00001
1.00104
1.01982
1.15498
1.35576
1.47194
1.52979
1.53363
1.53289
1.52353
1.56488
1
1
1
1
1
1
1
1
1
1
1
1
1
1
1
1
1
1
1
1
1
1
1
1
1
1
1
1
1
1
1
1
1
1
1
1
1
1
1
1
1
1
1
1
1
1
1
1
1
1
1
1
1
1
1
1
1
1
1
1
1
1
1
1
1
1
1
1
1
1
1.00001
1.00069
1.01856
1.14928
1.35081
1.48021
1.52091
1.53472
1.55193
1.76844
1
1
1
1
1
1
1
1
1
1
1
1
1
1
1
1
1
1
1
1
1
1
1
1
1
1
1
1
1
1
1
1
1
1
1
1
1
1
1
1
1
1
1
1
1
1
1
1
1
1
1
1
1
1
1
1
1
1
1
1
1
1
1
1
1
1
1
1
1
1
1
1.00001
1.00076
1.01834
1.15594
1.3793
1.46983
1.59761
1.70165
1.93797
1
1
1
1
1
1
1
1
1
1
1
1
1
1
1
1
1
1
1
1
1
1
1
1
1
1
1
1
1
1
1
1
1
1
1
1
1
1
1
1
1
1
1
1
1
1
1
1
1
1
1
1
1
1
1
1
1
1
1
1
1
1
1
1
1
1
1
1
1
1
1
1
1.00001
1.00073
1.02697
1.18074
1.50521
1.76185
1.99261
2.12744
)
;

boundaryField
{
    inlet
    {
        type            fixedValue;
        value           uniform 1;
    }
    outlet
    {
        type            zeroGradient;
    }
    bottom
    {
        type            symmetryPlane;
    }
    top
    {
        type            symmetryPlane;
    }
    obstacle
    {
        type            zeroGradient;
    }
    defaultFaces
    {
        type            empty;
    }
}


// ************************************************************************* //
