/*--------------------------------*- C++ -*----------------------------------*\
| =========                 |                                                 |
| \\      /  F ield         | OpenFOAM: The Open Source CFD Toolbox           |
|  \\    /   O peration     | Version:  2206                                  |
|   \\  /    A nd           | Website:  www.openfoam.com                      |
|    \\/     M anipulation  |                                                 |
\*---------------------------------------------------------------------------*/
FoamFile
{
    version     2.0;
    format      ascii;
    arch        "LSB;label=32;scalar=64";
    class       volVectorField;
    location    "0.06";
    object      U;
}
// * * * * * * * * * * * * * * * * * * * * * * * * * * * * * * * * * * * * * //

dimensions      [0 1 -1 0 0 0 0];

internalField   nonuniform List<vector> 
75
(
(7 -3.05803e-15 0)
(7 -2.96051e-15 0)
(7 -1.12811e-15 0)
(7 3.63771e-15 0)
(7 1.48359e-16 0)
(7 -8.41812e-17 0)
(7 -3.54228e-16 0)
(7 4.98836e-16 0)
(7 4.04236e-16 0)
(7 -2.91908e-15 0)
(7 -9.16825e-18 0)
(7 -9.16825e-18 0)
(7 -8.62982e-15 0)
(7 -8.64774e-15 0)
(7 -1.159e-15 0)
(7 1.90866e-16 0)
(7 1.54193e-16 0)
(7 1.09436e-15 0)
(7 6.92786e-15 0)
(7 1.53378e-14 0)
(7 3.05803e-15 0)
(7 2.85841e-15 0)
(7 5.35843e-15 0)
(7 7.21541e-15 0)
(7 7.83094e-15 0)
(6.97937 0.00576958 0)
(6.94204 0.0470979 0)
(6.90041 0.0913673 0)
(6.8497 0.199493 0)
(6.79974 0.289223 0)
(6.7344 0.456139 0)
(6.68212 0.554443 0)
(6.59335 0.771031 0)
(6.54999 0.868097 0)
(6.45334 1.15848 0)
(6.99975 5.4125e-05 0)
(7.00042 -0.000325824 0)
(7.00001 9.85193e-05 0)
(7.00002 -0.000246288 0)
(7.00564 -0.0204364 0)
(6.96156 0.0944184 0)
(6.93033 0.170802 0)
(6.77373 0.584744 0)
(6.73031 0.796904 0)
(6.42301 1.63428 0)
(7.00001 -2.39422e-07 0)
(7 1.61105e-06 0)
(7 -8.64201e-07 0)
(7 2.79944e-07 0)
(7 2.78019e-06 0)
(7 -1.45848e-06 0)
(7.00065 -0.00165994 0)
(6.99947 0.00129674 0)
(7.00311 -0.00489077 0)
(6.92933 0.284713 0)
(7 -1.37977e-08 0)
(7 8.88774e-08 0)
(7 2.62359e-08 0)
(7 4.27119e-08 0)
(7 3.12605e-08 0)
(7 1.51431e-08 0)
(7.00003 -0.000107416 0)
(7.00002 -8.7088e-05 0)
(7.00012 -0.000311153 0)
(6.9995 0.00532428 0)
(7 -5.10565e-10 0)
(7 9.03448e-10 0)
(7 -3.12113e-10 0)
(7 -2.68059e-10 0)
(7 3.90984e-09 0)
(7 5.14644e-09 0)
(7 4.79049e-07 0)
(7 -3.44518e-06 0)
(7 -1.94105e-05 0)
(7 -4.55632e-06 0)
)
;

boundaryField
{
    inlet
    {
        type            fixedValue;
        value           uniform (7 0 0);
    }
    outlet
    {
        type            zeroGradient;
    }
    bottom
    {
        type            symmetryPlane;
    }
    top
    {
        type            symmetryPlane;
    }
    obstacle
    {
        type            slip;
    }
    defaultFaces
    {
        type            empty;
    }
}


// ************************************************************************* //
