/*--------------------------------*- C++ -*----------------------------------*\
| =========                 |                                                 |
| \\      /  F ield         | OpenFOAM: The Open Source CFD Toolbox           |
|  \\    /   O peration     | Version:  2206                                  |
|   \\  /    A nd           | Website:  www.openfoam.com                      |
|    \\/     M anipulation  |                                                 |
\*---------------------------------------------------------------------------*/
FoamFile
{
    version     2.0;
    format      ascii;
    arch        "LSB;label=32;scalar=64";
    class       volScalarField;
    location    "0.06";
    object      T;
}
// * * * * * * * * * * * * * * * * * * * * * * * * * * * * * * * * * * * * * //

dimensions      [0 0 0 1 0 0 0];

internalField   nonuniform List<scalar> 
4800
(
1
1
1
1
1
1
1
1
1
1
1
1
1
1
1
1
1
1
1
1
1
1
1
1
1
1
1
1
1
1
1
1
1
1
1
1
1
1
1
1
1
1
1
1
1
1
1
1
1
1
1
1
1
1
1
1
1
1
1
1
1
1
1
1
1
1
1
1
1
1
1
1
1
1
1
1
1
1
1
1
1
1
1
1
1
1
1
1
1
1
1
1
1
1
1
1
1
1
1
1
1
1
1
1
1
1
1
1
1
1
1
1
1
1
1
1
1
1
1
1
1
1
1
1
1
1
1
1
1
1
1
1
1
1
1
1
1
1
1
1
1
1
1
1
1
1
1
1
1
1
1
1
1
1
1
1
1
1
1
1
1
1
1
1
1
1
1
1
1
1
1
1
1
1
1
1
1
1
1
1
1
1
1
1
1
1
1
1
1
1
1
1
1
1
1
1
1
1
1
1
1
1
1
1
1
1
1
1
1
1
1
1
1
1
1
1
1
1
1
1
1
1
1
1
1
1
1
1
1
1
1
1
1
1
1
1
1
1
1
1
1
1
1
1
1
1
1
1
1
1
1
1
1
1
1
1
1
1
1
1
1
1
1
1
1
1
1
1
1
1
1
1
1
1
1
1
1
1
1
1
1
1
1
1
1
1
1
1
1
1
1
1
1
1
1
1
1
1
1
1
1
1
1
1
1
1
1
1
1
1
1
1
1
1
1
1
1
1
1
1
1
1
1
1
1
1
1
1
1
1
1
1
1
1
1
1
1
1
1
1
1
1
1
1
1
1
1
1
1
1
1
1
1
1
1
1
1
1
1
1
1
1
1
1
1
1
1
1
1
1
1
1
1
1
1
1
1
1
1
1
1
1
1
1
1
1
1
1
1
1
1
1
1
1
1
1
1
1
1
1
1
1
1
1
1
1
1
1
1
1
1
1
1
1
1
1
1
1
1
1
1
1
1
1
1
1
1
1
1
1
1
1
1
1
1
1
1
1
1
1
1
1
1
1
1
1
1
1
1
1
1
1
1
1
1
1
1
1
1
1
1
1
1
1
1
1
1
1
1
1
1
1
1
1
1
1
1
1
1
1
1
1
1
1
1
1
1
1
1
1
1
1
1
1
1
1
1
1
1
1
1
1
1
1
1
1
1
1
1
1
1
1
1
1
1
1
1
1
1
1
1
1
1
1
1
1
1
1
1
1
1
1
1
1
1
1
1
1
1
1
1
1
1
1
1
1
1
1
1
1
1
1
1
1
1
1
1
1
1
1
1
1
1
1
1
1
1
1
1
1
1
1
1
1
1
1
1
1
1
1
1
1
1
1
1
1
1
1
1
1
1
1
1
1
1
1
1
1
1
1
1
1
1
1
1
1
1
1
1
1
1
1
1
1
1
1
1
1
1
1
1
1
1
1
1
1
1
1
1
1
1
1
1
1
1
1
1
1
1
1
1
1
1
1
1
1
1
1
1
1
1
1
1
1
1
1
1
1
1
1
1
1
1
1
1
1
1
1
1
1
1
1
1
1
1
1
1
1
1
1
1
1
1
1
1
1
1
1
1
1
1
1
1
1
1
1
1
1
1
1
1
1
1
1
1
1
1
1
1
1
1
1
1
1
1
1
1
1
1
1
1
1
1
1
1
1
1
1
1
1
1
1
1
1
1
1
1
1
1
1
1
1
1
1
1
1
1
1
1
1
1
1
1
1
1
1
1
1
1
1
1
1
1
1
1
1
1
1
1
1
1
1
1
1
1
1
1
1
1
1
1
1
1
1
1
1
1
1
1
1
1
1
1
1
1
1
1
1
1
1
1
1
1
1
1
1
1
1
1
1
1
1
1
1
1
1
1
1
1
1
1
1
1
1
1
1
1
1
1
1
1
1
1
1
1
1
1
1
1
1
1
1
1
1
1
1
1
1
1
1
1
1
1
1
1
1
1
1
1
1
1
1
1
1
1
1
1
1
1
1
1
1
1
1
1
1
1
1
1
1
1
1
1
1
1
1
1
1
1
1
1
1
1
1
1
1
1
1
1
1
1
1
1
1
1
1
1
1
1
1
1
1
1
1
1
1
1
1
1
1
1
1
1
1
1
1
1
1
1
1
1
1
1
1
1
1
1
1
1
1
1
1
1
1
1
1
1
1
1
1
1
1
1
1
1
1
1
1
1
1
1
1
1
1
1
1
1
1
1
1
1
1
1
1
1
1
1
1
1
1
1
1
1
1
1
1
1
1
1
1
1
1
1
1
1
1
1
1
1
1
1
1
1
1
1
1
1
1
1
1
1
1
1
1
1
1
1
1
1
1
1
1
1
1
1
1
1
1
1
1
1
1
1
1
1
1
1
1
1
1
1
1
1
1
1
1
1
1
1
1
1
1
1
1
1
1
1
1
1
1
1
1
1
1
1
1
1
1
1
1
1
1
1
1
1
1
1
1
1
1
1
1
1
1
1
1
1
1
1
1
1
1
1
1
1
1
1
1
1
1
1
1
1
1
1
1
1
1
1
1
1
1
1
1
1
1
1
1
1
1
1
1
1
1
1
1
1
1
1
1
1
1
1
1
1
1
1
1
1
1
1
1
1
1
1
1
1
1
1
1
1
1
1
1
1
1
1
1
1
1
1
1
1
1
1
1
1
1
1
1
1
1
1
1
1
1
1
1
1
1
1
1
1
1
1
1
1
1
1
1
1
1
1
1
1
1
1
1
1
1
1
1
1
1
1
1
1
1
1
1
1
1
1
1
1
1
1
1
1
1
1
1
1
1
1
1
1
1
1
1
1
1
1
1
1
1
1
1
1
1
1
1
1
1
1
1
1
1
1
1
1
1
1
1
1
1
1
1
1
1
1
1
1
1
1
1
1
1
1
1
1
1
1
1
1
1
1
1
1
1
1
1
1
1
1
1
1
1
1
1
1
1
1
1
1
1
1
1
1
1
1
1
1
1
1
1
1
1
1
1
1
1
1
1
1
1
1
1
1
1
1
1
1
1
1
1
1
1
1
1
1
1
1
1
1
1
1
1
1
1
1
1
1
1
1
1
1
1
1
1
1
1
1
1
1
1
1
1
1
1
1
1
1
1
1
1
1
1
1
1
1
1
1
1
1
1
1
1
1
1
1
1
1
1
1
1
1
1
1
1
1
1
1
1
1
1
1
1
1
1
1
1
1
1
1
1
1
1
1
1
1
1
1
1
1
1
1
1
1
1
1
1
1
1
1
1
1
1
1
1
1
1
1
1
1
1
1
1
1
1
1
1
1
1
1
1
1
1
1
1
1
1
1
1
1
1
1
1
1
1
1
1
1
1
1
1
1
1
1
1
1
1
1
1
1
1
1
1
1
1
1
1
1
1
1
1
1
1
1
1
1
1
1
1
1
1
1
1
1
1
1
1
1
1
1
1
1
1
1
1
1
1
1
1
1
1
1
1
1
1
1
1
1
1
1
1
1
1
1
1
1
1
1
1
1
1
1
1
1
1
1
1
1
1
1
1
1
1
1
1
1
1
1
1
1
1
1
1
1
1
1
1
1
1
1
1
1
1
1
1
1
1
1
1
1
1
1
1
1
1
1
1
1
1
1
1
1
1
1
1
1
1
1
1
1
1
1
1
1
1
1.07567
1.17011
1.26619
1.34416
1.41268
1.46028
1.49727
1.49562
1.4812
1.45046
1.41191
1.39108
1.38101
1.37434
1.37476
1.37751
1.38141
1.38466
1.38655
1.38695
1.38719
1.38717
1.38728
1.387
1.38546
1.38209
1.37737
1.37217
1.36767
1.3644
1.36296
1.36212
1.36143
1.3605
1.35944
1.35876
1.35798
1.35671
1.35511
1.35382
1.35282
1.35233
1.35157
1.35103
1.35085
1.35082
1.351
1.35182
1.35316
1.35441
1.35527
1.35575
1.356
1.35619
1.35646
1.35688
1.3576
1.35878
1.36068
1.36352
1.36732
1.37109
1.37286
1.37312
1.37311
1.3731
1.37307
1.37302
1.37298
1.37294
1.37291
1.37289
1.37287
1.37285
1.37283
1.37282
1.37281
1.37281
1.37282
1.37288
1.00274
1.01697
1.0459
1.10085
1.16188
1.22572
1.28944
1.33524
1.36662
1.38689
1.40707
1.40492
1.40336
1.39973
1.39402
1.39017
1.38694
1.38537
1.386
1.38709
1.38835
1.38874
1.38824
1.38712
1.3847
1.38079
1.37608
1.37133
1.36739
1.36466
1.36321
1.36214
1.36094
1.35989
1.35914
1.35856
1.35776
1.35643
1.35459
1.35289
1.35157
1.35099
1.35039
1.35011
1.35018
1.35037
1.35099
1.35222
1.35361
1.3548
1.35564
1.35619
1.35657
1.35689
1.35729
1.3579
1.35881
1.36015
1.36221
1.36522
1.36901
1.37223
1.37343
1.37354
1.37353
1.3735
1.37344
1.37337
1.37333
1.37331
1.37331
1.37332
1.37334
1.37335
1.37338
1.37341
1.37345
1.37348
1.37351
1.37353
1
1.00007
1.00051
1.00303
1.01135
1.03826
1.09306
1.19248
1.30943
1.38416
1.42943
1.43781
1.43513
1.42763
1.41522
1.39824
1.39037
1.38942
1.39039
1.3933
1.39336
1.3926
1.39111
1.38925
1.38667
1.38304
1.37862
1.37429
1.37107
1.36862
1.36653
1.36463
1.36339
1.36262
1.36211
1.36148
1.36043
1.35872
1.35638
1.3539
1.35239
1.35215
1.35228
1.35204
1.35205
1.35226
1.35286
1.35391
1.35545
1.35689
1.35795
1.35868
1.35912
1.35943
1.35978
1.36033
1.36121
1.36257
1.36463
1.3677
1.37156
1.37449
1.37533
1.37536
1.37535
1.37534
1.37528
1.37521
1.37521
1.37521
1.37522
1.37523
1.37522
1.3752
1.37518
1.37516
1.37512
1.37509
1.37505
1.37498
1
1
1
1
1.00003
1.00035
1.00221
1.01606
1.07317
1.18963
1.31105
1.37943
1.41651
1.41449
1.41268
1.41459
1.41317
1.40901
1.40549
1.40278
1.39916
1.3957
1.39345
1.39226
1.39023
1.38678
1.38275
1.3788
1.37548
1.37304
1.37062
1.36854
1.367
1.36583
1.36486
1.36375
1.36219
1.36014
1.35747
1.35439
1.35302
1.35313
1.35388
1.35389
1.35386
1.35419
1.35512
1.35658
1.35859
1.36046
1.36166
1.36236
1.3628
1.36308
1.36337
1.36385
1.36468
1.36603
1.36807
1.37121
1.37513
1.37769
1.37819
1.3782
1.37819
1.37816
1.3781
1.37804
1.37804
1.37803
1.37801
1.37797
1.37792
1.37785
1.37776
1.37767
1.37758
1.37749
1.37742
1.37733
1
1
1
1
1
1
1
1.00005
1.00097
1.01196
1.05998
1.16824
1.29261
1.36992
1.41672
1.43155
1.43
1.42579
1.41868
1.40808
1.40162
1.39904
1.39819
1.39706
1.39373
1.38948
1.38548
1.38142
1.37777
1.3752
1.37321
1.37114
1.36919
1.36746
1.36593
1.36439
1.36267
1.36071
1.35817
1.35555
1.35448
1.35441
1.35494
1.35518
1.35514
1.35569
1.35706
1.35906
1.36158
1.3637
1.36491
1.36558
1.36596
1.36612
1.36627
1.36667
1.3675
1.36889
1.37112
1.3746
1.37859
1.38066
1.3809
1.38089
1.38084
1.38075
1.38063
1.38051
1.38049
1.38049
1.38048
1.38048
1.38049
1.3805
1.38049
1.38046
1.38041
1.38033
1.38025
1.38007
1
1
1
1
1
1
1
1
0.999999
1.00003
1.00064
1.00915
1.04841
1.15735
1.27428
1.3582
1.40257
1.40972
1.41195
1.413
1.41055
1.40783
1.4058
1.40254
1.39643
1.38984
1.38509
1.38127
1.37859
1.37645
1.37439
1.37208
1.36958
1.36732
1.36549
1.36391
1.36228
1.36047
1.3581
1.35599
1.35483
1.35448
1.3548
1.35513
1.35518
1.35596
1.35767
1.36008
1.36288
1.36497
1.3661
1.36671
1.36706
1.36727
1.36749
1.36798
1.36897
1.37068
1.37348
1.37746
1.38124
1.38266
1.38273
1.3827
1.38261
1.38245
1.38227
1.38213
1.38204
1.38199
1.38195
1.38192
1.3819
1.3819
1.3819
1.38192
1.38195
1.38199
1.38202
1.38199
1
1
1
1
1
1
1
1
1
1
0.999999
1.00002
1.00047
1.00785
1.04434
1.14024
1.25869
1.34162
1.40059
1.41382
1.41606
1.41406
1.40984
1.40119
1.39407
1.38914
1.38455
1.37955
1.37643
1.37479
1.37267
1.36966
1.36715
1.3648
1.36292
1.36189
1.36064
1.35896
1.35688
1.35495
1.35368
1.35336
1.35356
1.35397
1.35426
1.35532
1.35731
1.36003
1.36292
1.36495
1.36604
1.36663
1.36706
1.36744
1.36782
1.36835
1.36941
1.37152
1.37494
1.37914
1.38228
1.38307
1.3831
1.3831
1.38307
1.38297
1.38287
1.38279
1.38273
1.38267
1.38262
1.38257
1.38252
1.38249
1.38247
1.38248
1.3825
1.38253
1.38257
1.3826
1
1
1
1
1
1
1
1
1
1
1
1
1
1.00002
1.00049
1.00606
1.04054
1.13316
1.25129
1.33509
1.38213
1.39772
1.39721
1.3971
1.39484
1.39116
1.38651
1.38043
1.37494
1.37088
1.36832
1.36679
1.36528
1.36351
1.36104
1.35926
1.35754
1.35565
1.35373
1.35205
1.35086
1.35054
1.35096
1.35128
1.35186
1.35326
1.35566
1.35878
1.36178
1.36375
1.36478
1.36564
1.36639
1.36693
1.36745
1.3682
1.36949
1.37177
1.37533
1.3795
1.38218
1.38274
1.38277
1.38279
1.38279
1.38275
1.3827
1.3827
1.3827
1.38271
1.38272
1.38271
1.38268
1.38263
1.3826
1.38257
1.38255
1.38255
1.38254
1.38257
1
1
1
1
1
1
1
1
1
1
1
1
1
1
1
1.00001
1.00046
1.00607
1.03667
1.1343
1.24329
1.33756
1.3722
1.3941
1.39407
1.38997
1.38321
1.37433
1.36781
1.36496
1.36279
1.36179
1.36085
1.35931
1.35666
1.35408
1.35212
1.35044
1.34897
1.34764
1.34727
1.34747
1.34784
1.3492
1.35071
1.35237
1.35503
1.35808
1.3604
1.36212
1.36325
1.364
1.36474
1.36538
1.36602
1.36695
1.36849
1.37108
1.37497
1.37917
1.38141
1.38182
1.38187
1.38192
1.38196
1.38198
1.38203
1.38209
1.38215
1.38221
1.38225
1.38228
1.38229
1.38227
1.38226
1.38224
1.38223
1.38223
1.38224
1.38228
1
1
1
1
1
1
1
1
1
1
1
1
1
1
1
1
1
1.00001
1.00044
1.00677
1.03892
1.13109
1.24237
1.3339
1.36603
1.36991
1.36999
1.36602
1.36214
1.36119
1.36023
1.35816
1.35609
1.35327
1.35041
1.34779
1.34601
1.34416
1.34385
1.34389
1.34478
1.34586
1.34639
1.34711
1.34832
1.34989
1.35229
1.35523
1.35745
1.3592
1.3606
1.36158
1.36255
1.36332
1.36409
1.36526
1.36727
1.37044
1.3747
1.37855
1.38027
1.38056
1.3806
1.38063
1.38064
1.38064
1.38065
1.38071
1.3808
1.38088
1.38096
1.38104
1.38112
1.3812
1.38129
1.38135
1.3814
1.38146
1.3815
1.38158
1
1
1
1
1
1
1
1
1
1
1
1
1
1
1
1
1
1
1
1.00002
1.00055
1.00659
1.04511
1.13068
1.2354
1.30793
1.35599
1.35915
1.35992
1.35792
1.35428
1.35081
1.34813
1.3455
1.34338
1.34172
1.34129
1.34202
1.34325
1.34401
1.34348
1.34355
1.34373
1.34418
1.34507
1.34662
1.34895
1.35154
1.35397
1.35593
1.35768
1.35955
1.36111
1.36216
1.36321
1.36482
1.36734
1.37075
1.37468
1.37769
1.37871
1.37879
1.37879
1.37876
1.3787
1.3787
1.37872
1.3788
1.37892
1.37906
1.3792
1.37934
1.3795
1.37966
1.37982
1.37995
1.38006
1.38016
1.38022
1.38031
1
1
1
1
1
1
1
1
1
1
1
1
1
1
1
1
1
1
1
1
1
1.00002
1.00075
1.00723
1.04399
1.12214
1.21845
1.28564
1.32965
1.34133
1.33982
1.33701
1.33899
1.34053
1.34195
1.34328
1.34326
1.3421
1.34173
1.34137
1.34009
1.33985
1.34012
1.3408
1.34189
1.34348
1.34582
1.34813
1.35089
1.35314
1.35568
1.35836
1.36059
1.36223
1.36376
1.36568
1.368
1.37093
1.37432
1.37659
1.37698
1.37697
1.37694
1.37689
1.37684
1.37685
1.37693
1.37706
1.37723
1.37742
1.3776
1.37777
1.37791
1.37805
1.37817
1.37828
1.37839
1.37849
1.37857
1.37869
1
1
1
1
1
1
1
1
1
1
1
1
1
1
1
1
1
1
1
1
1
1
1
1.00003
1.00076
1.00704
1.03622
1.10852
1.18928
1.25434
1.29887
1.31996
1.33451
1.33645
1.33791
1.33941
1.33942
1.33778
1.33619
1.33556
1.33557
1.33642
1.33776
1.33968
1.34222
1.34417
1.34636
1.34821
1.3498
1.35183
1.35368
1.35598
1.35838
1.36041
1.36242
1.36466
1.36731
1.37061
1.37377
1.37523
1.3755
1.3756
1.3757
1.37572
1.37573
1.37578
1.37585
1.37593
1.376
1.37607
1.37614
1.37621
1.37629
1.37638
1.37648
1.37658
1.3767
1.37683
1.37696
1.37716
1
1
1
1
1
1
1
1
1
1
1
1
1
1
1
1
1
1
1
1
1
1
1
1
1
1.00003
1.00058
1.00537
1.02598
1.07572
1.14462
1.21363
1.26614
1.29516
1.31352
1.32293
1.32472
1.32586
1.32889
1.3329
1.33653
1.3394
1.34159
1.34225
1.34332
1.34371
1.3448
1.346
1.34726
1.34941
1.3513
1.3536
1.35609
1.35841
1.36073
1.36324
1.36663
1.37051
1.37333
1.37454
1.3749
1.37504
1.37509
1.37503
1.37498
1.37495
1.37494
1.37495
1.37492
1.37488
1.37486
1.37487
1.37491
1.37498
1.37509
1.37523
1.37538
1.37555
1.3757
1.37593
1
1
1
1
1
1
1
1
1
1
1
1
1
1
1
1
1
1
1
1
1
1
1
1
1
1
1
1.00002
1.00031
1.00261
1.01291
1.04393
1.0964
1.16583
1.22248
1.26768
1.29815
1.31983
1.32758
1.33505
1.33654
1.3375
1.33978
1.3391
1.33965
1.33936
1.34021
1.34186
1.3443
1.34765
1.35049
1.35378
1.35678
1.35941
1.36229
1.36534
1.36866
1.37171
1.37354
1.37422
1.37422
1.37412
1.374
1.37386
1.37375
1.37369
1.3737
1.37373
1.3738
1.37388
1.374
1.37411
1.37422
1.37431
1.37439
1.37447
1.37454
1.3746
1.37466
1.37479
1
1
1
1
1
1
1
1
1
1
1
1
1
1
1
1
1
1
1
1
1
1
1
1
1
1
1
1
1
1
1.00009
1.00089
1.00493
1.01982
1.05463
1.10905
1.16971
1.22815
1.26752
1.29708
1.31209
1.31766
1.32619
1.32643
1.32963
1.33452
1.33794
1.34271
1.34624
1.35072
1.35382
1.35694
1.36019
1.36262
1.36556
1.36819
1.3704
1.37212
1.37266
1.37263
1.37249
1.37231
1.37222
1.3722
1.37227
1.37242
1.37262
1.3729
1.37319
1.37345
1.37367
1.37377
1.37381
1.37383
1.37383
1.37381
1.37379
1.37376
1.37376
1.37383
1
1
1
1
1
1
1
1
1
1
1
1
1
1
1
1
1
1
1
1
1
1
1
1
1
1
1
1
1
1
1
1
1.00002
1.00021
1.00144
1.00672
1.02329
1.05786
1.11342
1.16894
1.22734
1.26523
1.29575
1.31624
1.32737
1.3358
1.33896
1.34358
1.34567
1.34891
1.3521
1.35461
1.35873
1.36033
1.3636
1.3662
1.36805
1.36989
1.37044
1.37085
1.37125
1.37153
1.37182
1.37213
1.37243
1.37271
1.37289
1.37299
1.37304
1.37305
1.37302
1.37304
1.37304
1.37301
1.37301
1.37304
1.37308
1.37313
1.3732
1.37331
1
1
1
1
1
1
1
1
1
1
1
1
1
1
1
1
1
1
1
1
1
1
1
1
1
1
1
1
1
1
1
1
1
1
1
1.00003
1.00028
1.00168
1.00739
1.02357
1.05792
1.11118
1.16422
1.22079
1.25923
1.29225
1.30882
1.32321
1.33052
1.33523
1.34155
1.34437
1.35142
1.3561
1.36085
1.36519
1.36826
1.371
1.37223
1.37299
1.37345
1.37334
1.37326
1.3731
1.37279
1.37261
1.37237
1.37214
1.37196
1.37187
1.37182
1.37187
1.37197
1.37209
1.37225
1.37247
1.37267
1.37283
1.37293
1.37301
1
1
1
1
1
1
1
1
1
1
1
1
1
1
1
1
1
1
1
1
1
1
1
1
1
1
1
1
1
1
1
1
1
1
1
1
1
1
1.00004
1.00029
1.00169
1.00712
1.02166
1.0525
1.09973
1.15288
1.20806
1.24831
1.28596
1.30706
1.32787
1.33988
1.34949
1.35673
1.36216
1.3676
1.37013
1.37236
1.37265
1.37234
1.37233
1.37147
1.37095
1.37059
1.36989
1.37017
1.37027
1.3703
1.37061
1.37105
1.3713
1.37162
1.37201
1.37226
1.37237
1.37245
1.37248
1.37246
1.37241
1.37245
1
1
1
1
1
1
1
1
1
1
1
1
1
1
1
1
1
1
1
1
1
1
1
1
1
1
1
1
1
1
1
1
1
1
1
1
1
1
1
1
1
1.00003
1.00025
1.00137
1.00549
1.01692
1.04215
1.08199
1.13165
1.18434
1.22801
1.26954
1.29576
1.32223
1.3347
1.34862
1.35426
1.35871
1.36155
1.36169
1.36315
1.36293
1.36491
1.36653
1.36761
1.3689
1.37032
1.37129
1.37204
1.37251
1.37239
1.3723
1.37226
1.37211
1.37184
1.37168
1.37168
1.37165
1.37163
1.37175
1
1
1
1
1
1
1
1
1
1
1
1
1
1
1
1
1
1
1
1
1
1
1
1
1
1
1
1
1
1
1
1
1
1
1
1
1
1
1
1
1
1
1
1
1.00002
1.00016
1.00085
1.00338
1.01067
1.02731
1.05582
1.09643
1.1424
1.1889
1.23226
1.2654
1.29735
1.31677
1.33635
1.34648
1.3572
1.36231
1.36586
1.36802
1.36969
1.37075
1.37168
1.37159
1.37104
1.37133
1.37062
1.37013
1.37037
1.37052
1.37031
1.37045
1.37081
1.37106
1.37137
1.37177
1
1
1
1
1
1
1
1
1
1
1
1
1
1
1
1
1
1
1
1
1
1
1
1
1
1
1
1
1
1
1
1
1
1
1
1
1
1
1
1
1
1
1
1
1
1
1
1.00001
1.00006
1.00035
1.00139
1.00449
1.01179
1.02632
1.05059
1.0836
1.12465
1.16893
1.21074
1.25275
1.28379
1.31365
1.33159
1.34448
1.35525
1.35783
1.36105
1.36385
1.363
1.36496
1.36591
1.36718
1.36846
1.36948
1.37067
1.37135
1.37167
1.37166
1.37172
1.37167
1
1
1
1
1
1
1
1
1
1
1
1
1
1
1
1
1
1
1
1
1
1
1
1
1
1
1
1
1
1
1
1
1
1
1
1
1
1
1
1
1
1
1
1
1
1
1
1
1
1
1
1.00001
1.00007
1.00029
1.001
1.00292
1.0076
1.01767
1.03645
1.06776
1.10884
1.1578
1.20683
1.25139
1.28742
1.31804
1.33471
1.35169
1.3587
1.36433
1.36697
1.36904
1.37031
1.37104
1.37102
1.37078
1.37064
1.37037
1.37051
1.37047
1
1
1
1
1
1
1
1
1
1
1
1
1
1
1
1
1
1
1
1
1
1
1
1
1
1
1
1
1
1
1
1
1
1
1
1
1
1
1
1
1
1
1
1
1
1
1
1
1
1
1
1
1
1
1
1.00001
1.00003
1.00013
1.00054
1.00189
1.00568
1.0151
1.03464
1.06823
1.11456
1.16763
1.22087
1.26402
1.30375
1.3262
1.34653
1.35394
1.36081
1.36345
1.36385
1.36508
1.36595
1.36726
1.3688
1.36954
1
1
1
1
1
1
1
1
1
1
1
1
1
1
1
1
1
1
1
1
1
1
1
1
1
1
1
1
1
1
1
1
1
1
1
1
1
1
1
1
1
1
1
1
1
1
1
1
1
1
1
1
1
1
1
1
1
1
1
1
1.00002
1.00011
1.00051
1.00199
1.00658
1.01842
1.04357
1.08439
1.13933
1.19691
1.24967
1.29351
1.32215
1.34422
1.35535
1.36383
1.36629
1.36882
1.37087
1.37046
1
1
1
1
1
1
1
1
1
1
1
1
1
1
1
1
1
1
1
1
1
1
1
1
1
1
1
1
1
1
1
1
1
1
1
1
1
1
1
1
1
1
1
1
1
1
1
1
1
1
1
1
1
1
1
1
1
1
1
1
1
1
1
1
1.00002
1.00016
1.00081
1.00331
1.0112
1.03066
1.06842
1.12369
1.18604
1.24355
1.29156
1.32401
1.34606
1.3571
1.36204
1.36458
1
1
1
1
1
1
1
1
1
1
1
1
1
1
1
1
1
1
1
1
1
1
1
1
1
1
1
1
1
1
1
1
1
1
1
1
1
1
1
1
1
1
1
1
1
1
1
1
1
1
1
1
1
1
1
1
1
1
1
1
1
1
1
1
1
1
1
1.00001
1.00007
1.00043
1.00214
1.00841
1.02629
1.06393
1.12274
1.18873
1.2515
1.30038
1.32974
1.35459
1
1
1
1
1
1
1
1
1
1
1
1
1
1
1
1
1
1
1
1
1
1
1
1
1
1
1
1
1
1
1
1
1
1
1
1
1
1
1
1
1
1
1
1
1
1
1
1
1
1
1
1
1
1
1
1
1
1
1
1
1
1
1
1
1
1
1
1
1
1
1
1.00004
1.00033
1.00193
1.00853
1.02817
1.07164
1.13829
1.20419
1.29554
1
1
1
1
1
1
1
1
1
1
1
1
1
1
1
1
1
1
1
1
1
1
1
1
1
1
1
1
1
1
1
1
1
1
1
1
1
1
1
1
1
1
1
1
1
1
1
1
1
1
1
1
1
1
1
1
1
1
1
1
1
1
1
1
1
1
1
1
1
1
1
1
1
1
1.00004
1.0004
1.00253
1.01194
1.03651
1.13968
1
1
1
1
1
1
1
1
1
1
1
1
1
1
1
1
1
1
1
1
1
1
1
1
1
1
1
1
1
1
1
1
1
1
1
1
1
1
1
1
1
1
1
1
1
1
1
1
1
1
1
1
1
1
1
1
1
1
1
1
1
1
1
1
1
1
1
1
1
1
1
1
1
1
1
1
1.00001
1.00009
1.00067
1.0153
1
1
1
1
1
1
1
1
1
1
1
1
1
1
1
1
1
1
1
1
1
1
1
1
1
1
1
1
1
1
1
1
1
1
1
1
1
1
1
1
1
1
1
1
1
1
1
1
1
1
1
1
1
1
1
1
1
1
1
1
1
1
1
1
1
1
1
1
1
1
1
1
1
1
1
1
1
1
1
1.00022
1
1
1
1
1
1
1
1
1
1
1
1
1
1
1
1
1
1
1
1
1
1
1
1
1
1
1
1
1
1
1
1
1
1
1
1
1
1
1
1
1
1
1
1
1
1
1
1
1
1
1
1
1
1
1
1
1
1
1
1
1
1
1
1
1
1
1
1
1
1
1
1
1
1
1
1
1
1
1
1
1
1
1
1
1
1
1
1
1
1
1
1
1
1
1
1
1
1
1
1
1
1
1
1
1
1
1
1
1
1
1
1
1
1
1
1
1
1
1
1
1
1
1
1
1
1
1
1
1
1
1
1
1
1
1
1
1
1
1
1
1
1
1
1
1
1
1
1
1
1
1
1
1
1
1
1
1
1
1
1
1
1
1
1
1
1
1
1
1
1
1
1
1
1
1
1
1
1
1
1
1
1
1
1
1
1
1
1
1
1
1
1
1
1
1
1
1
1
1
1
1
1
1
1
1
1
1
1
1
1
1
1
1
1
1
1
1
1
1
1
1
1
1
1
1
1
1
1
1
1
1
1
1
1
1
1
1
1
1
1
1
1
1
1
1
1
1
1
1
1
1
1
1
1
1
1
1
1
1
1
1
1
1
1
1
1
1
1
1
1
1
1
1
1
1
1
1
1
1
1
1
1
1
1
1
1
1
1
1
1
1
1
1
1
1
1
1
1
1
1
1
1
1
1
1
1
1
1
1
1
1
1
1
1
1
1
1
1
1
1
1
1
1
1
1
1
1
1
1
1
1
1
1
1
1
1
1
1
1
1
1
1
1
1
1
1
1
1
1
1
1
1
1
1
1
1
1
1
1
1
1
1
1
1
1
1
1
1
1
1
1
1
1
1
1
1
1
1
1
1
1
1
1
1
1
1
1
1
1
1
1
1
1
1
1
1
1
1
1
1
1
1
1
1
1
1
1
1
1
1
1
1
1
1
1
1
1
1
1
1
1
1
1
1
1
1
1
1
1
1
1
1
1
1
1
1
1
1
1
1
1
1
1
1
1
1
1
1
1
1
1
1
1
1
1
1
1
1
1
1
1
1
1
1
1
1
1
1
1
1
1
1
1
1
1
1
1
1
1
1
1
1
1
1
1
1
1
1
1
1
1
1
1
1
1
1
1
1
1
1
1
1
1
1
1
1
1
1
1
1
1
1
1
1
1
1
1
1
1
1
1
1
1
1
1
1
1
1
1
1
1
1
1
1
1
1
1
1
1
1
1
1
1
1
1
1
1
1
1
1
1
1
1
1
1
1
1
1
1
1
1
1
1
1
1
1
1
1
1
1
1
1
1
1
1
1
1
1
1
1
1
1
1
1
1
1
1
1
1
1
1
1
1
1
1
1
1
1
1
1
1
1
1
1
1
1
1
1
1
1
1
1
1
1
1
1
1
1
1
1
1
1
1
1
1
1
1
1
1
1
1
1
1
1
1
1
1
1
1
1
1
1
1
1
1
1
1
1
1
1
1
1
1
1
1
1
1
1
1
1
1
1
1
1
1
1
1
1
1
1
1
1
1
1
1
1
1
1
1
1
1
1
1
1
1
1
1
1
1
1
1
1
1
1
1
1
1
1
1
1
1
1
1
1
1
1
1
1
1
1
1
1
1
1
1
1
1
1
1
1
)
;

boundaryField
{
    inlet
    {
        type            fixedValue;
        value           uniform 1;
    }
    outlet
    {
        type            zeroGradient;
    }
    bottom
    {
        type            symmetryPlane;
    }
    top
    {
        type            symmetryPlane;
    }
    obstacle
    {
        type            zeroGradient;
    }
    defaultFaces
    {
        type            empty;
    }
}


// ************************************************************************* //
