/*--------------------------------*- C++ -*----------------------------------*\
| =========                 |                                                 |
| \\      /  F ield         | OpenFOAM: The Open Source CFD Toolbox           |
|  \\    /   O peration     | Version:  2206                                  |
|   \\  /    A nd           | Website:  www.openfoam.com                      |
|    \\/     M anipulation  |                                                 |
\*---------------------------------------------------------------------------*/
FoamFile
{
    version     2.0;
    format      ascii;
    arch        "LSB;label=32;scalar=64";
    class       volScalarField;
    location    "0.18";
    object      p;
}
// * * * * * * * * * * * * * * * * * * * * * * * * * * * * * * * * * * * * * //

dimensions      [1 -1 -2 0 0 0 0];

internalField   nonuniform List<scalar> 
4800
(
1
1
1
1
1
1
1
1
1
1
1
1
1
1
1
1
1
1
1
1
1
1
1
1
1
1
1
1
1
1
1
1
1
1
1
1
1
1
1
1
1
1
1
1
1
1
1
1
1
1
1
1
1
1
1
1
1
1
1
1
1
1
1
1
1
1
1
1
1
1
1
1
1
1
1
1
1
1
1
1
1
1
1
1
1
1
1
1
1
1
1
1
1
1
1
1
1
1
1
1
1
1
1
1
1
1
1
1
1
1
1
1
1
1
1
1
1
1
1
1
1
1
1
1
1
1
1
1
1
1
1
1
1
1
1
1
1
1
1
1
1
1
1
1
1
1
1
1
1
1
1
1
1
1
1
1
1
1
1
1
1
1
1
1
1
1
1
1
1
1
1
1
1
1
1
1
1
1
1
1
1
1
1
1
1
1
1
1
1
1
1
1
1
1
1
1
1
1
1
1
1
1
1
1
1
1
1
1
1
1
1
1
1
1
1
1
1
1
1
1
1
1
1
1
1
1
1
1
1
1
1
1
1
1
1
1
1
1
1
1
1
1
1
1
1
1
1
1
1
1
1
1
1
1
1
1
1
1
1
1
1
1
1
1
1
1
1
1
1
1
1
1
1
1
1
1
1
1
1
1
1
1
1
1
1
1
1
1
1
1
1
1
1
1
1
1
1
1
1
1
1
1
1
1
1
1
1
1
1
1
1
1
1
1
1
1
1
1
1
1
1
1
1
1
1
1
1
1
1
1
1
1
1
1
1
1
1
1
1
1
1
1
1
1
1
1
1
1
1
1
1
1
1
1
1
1
1
1
1
1
1
1
1
1
1
1
1
1
1
1
1
1
1
1
1
1
1
1
1
1
1
1
1
1
1
1
1
1
1
1
1
1
1
1
1
1
1
1
1
1
1
1
1
1
1
1
1
1
1
1
1
1
1
1
1
1
1
1
1
1
1
1
1
1
1
1
1
1
1
1
1
1
1
1
1
1
1
1
1
1
1
1
1
1
1
1
1
1
1
1
1
1
1
1
1
1
1
1
1
1
1
1
1
1
1
1
1
1
1
1
1
1
1
1
1
1
1
1
1
1
1
1
1
1
1
1
1
1
1
1
1
1
1
1
1
1
1
1
1
1
1
1
1
1
1
1
1
1
1
1
1
1
1
1
1
1
1
1
1
1
1
1
1
1
1
1
1
1
1
1
1
1
1
1
1
1
1
1
1
1
1
1
1
1
1
1
1
1
1
1
1
1
1
1
1
1
1
1
1
1
1
1
1
1
1
1
1
1
1
1
1
1
1
1
1
1
1
1
1
1
1
1
1
1
1
1
1
1
1
1
1
1
1
1
1
1
1
1
1
1
1
1
1
1
1
1
1
1
1
1
1
1
1
1
1
1
1
1
1
1
1
1
1
1
1
1
1
1
1
1
1
1
1
1
1
1
1
1
1
1
1
1
1
1
1
1
1
1
1
1
1
1
1
1
1
1
1
1
1
1
1
1
1
1
1
1
1
1
1
1
1
1
1
1
1
1
1
1
1
1
1
1
1
1
1
1
1
1
1
1
1
1
1
1
1
1
1
1
1
1
1
1
1
1
1
1
1
1
1
1
1
1
1
1
1
1
1
1
1
1
1
1
1
1
1
1
1
1
1
1
1
1
1
1
1
1
1
1
1
1
1
1
1
1
1
1
1
1
1
1
1
1
1
1
1
1
1
1
1
1
1
1
1
1
1
1
1
1
1
1
1
1
1
1
1
1
1
1
1
1
1
1
1
1
1
1
1
1
1
1
1
1
1
1
1
1
1
1
1
1
1
1
1
1
1
1
1
1
1
1
1
1
1
1
1
1
1
1
1
1
1
1
1
1
1
1
1
1
1
1
1
1
1
1
1
1
1
1
1
1
1
1
1
1
1
1
1
1
1
1
1
1
1
1
1
1
1
1
1
1
1
1
1
1
1
1
1
1
1
1
1
1
1
1
1
1
1
1
1
1
1
1
1
1
1
1
1
1
1
1
1
1
1
1
1
1
1
1
1
1
1
1
1
1
1
1
1
1
1
1
1
1
1
1
1
1
1
1
1
1
1
1
1
1
1
1
1
1
1
1
1
1
1
1
1
1
1
1
1
1
1
1
1
1
1
1
1
1
1
1
1
1
1
1
1
1
1
1
1
1
1
1
1
1
1
1
1
1
1
1
1
1
1
1
1
1
1
1
1
1
1
1
1
1
1
1
1
1
1
1
1
1
1
1
1
1
1
1
1
1
1
1
1
1
1
1
1
1
1
1
1
1
1
1
1
1
1
1
1
1
1
1
1
1
1
1
1
1
1
1
1
1
1
1
1
1
1
1
1
1
1
1
1
1
1
1
1
1
1
1
1
1
1
1
1
1
1
1
1
1
1
1
1
1
1
1
1
1
1
1
1
1
1
1
1
1
1
1
1
1
1
1
1
1
1
1
1
1
1
1
1
1
1
1
1
1
1
1
1
1
1
1
1
1
1
1
1
1
1
1
1
1
1
1
1
1
1
1
1
1
1
1
1
1
1
1
1
1
1
1
1
1
1
1
1
1
1
1
1
1
1
1
1
1
1
1
1
1
1
1
1
1
1
1
1
1
1
1
1
1
1
1
1
1
1
1
1
1
1
1
1
1
1
1
1
1
1
1
1
1
1
1
1
1
1
1
1
1
1
1
1
1
1
1
1
1
1
1
1
1
1
1
1
1
1
1
1
1
1
1
1
1
1
1
1
1
1
1
1
1
1
1
1
1
1
1
1
1
1
1
1
1
1
1
1
1
1
1
1
1
1
1
1
1
1
1
1
1
1
1
1
1
1
1
1
1
1
1
1
1
1
1
1
1
1
1
1
1
1
1
1
1
1
1
1
1
1
1
1
1
1
1
1
1
1
1
1
1
1
1
1
1
1
1
1
1
1
1
1
1
1
1
1
1
1
1
1
1
1
1
1
1
1
1
1
1
1
1
1
1
1
1
1
1
1
1
1
1
1
1
1
1
1
1
1
1
1
1
1
1
1
1
1
1
1
1
1
1
1
1
1
1
1
1
1
1
1
1
1
1
1
1
1
1
1
1
1
1
1
1
1
1
1
1
1
1
1
1
1
1
1
1
1
1
1
1
1
1
1
1
1
1
1
1
1
1
1
1
1
1
1
1
1
1
1
1
1
1
1
1
1
1
1
1
1
1
1
1
1
1
1
1
1
1
1
1
1
1
1
1
1
1
1
1
1
1
1
1
1
1
1
1
1
1
1
1
1
1
1
1
1
1
1
1
1
1
1
1
1
1
1
1
1
1
1
1
1
1
1
1
1
1
1
1
1
1
1
1
1
1
1
1
1
1
1
1
1
1
1
1
1
1
1
1
1
1
1
1
1
1
1
1
1
1
1
1
1
1
1
1
1
1
1
1
1
1
1
1
1
1
1
1
1
1
1
1
1
1
1
1
1
1
1
1
1
1
1
1
1
1
1
1
1
1
1
1
1
1
1
1
1
1
1
1
1
1
1
1
1
1
1
1
1
1
1
1
1
1
1
1
1
1
1
1
1
1
1
1
1
1
1
1
1
1
1
1
1
1
1
1
1
1
1
1
1
1
1
1
1
1
1.25784
1.66578
2.17122
2.71735
3.32369
4.1542
4.85496
5.30325
5.83257
6.89617
7.64946
7.74645
7.87253
8.36825
8.62108
8.53888
8.21581
7.92083
7.60749
7.12113
6.57567
5.97135
5.46171
5.31861
5.2698
5.17021
5.15134
5.19445
5.28422
5.40863
5.47458
5.45736
5.42858
5.44382
5.51801
5.61614
5.69543
5.71236
5.70487
5.69267
5.67681
5.66515
5.64234
5.61354
5.6071
5.62141
5.67615
5.72744
5.74918
5.75193
5.74458
5.7315
5.71881
5.69828
5.65842
5.6108
5.59319
5.60262
5.65688
5.74452
5.80614
5.82429
5.81901
5.79174
5.73699
5.65218
5.59356
5.57464
5.5754
5.6017
5.66394
5.7484
5.80605
5.83625
5.84716
5.84246
5.81484
5.77618
5.70986
5.65177
1
1
0.9991
1.0094
1.00476
1.01255
1.16073
1.43375
1.60582
1.85464
2.33581
2.95428
3.35385
3.78583
4.58686
5.00918
5.21435
5.66724
5.84423
5.87738
6.09684
6.13362
6.20168
6.14809
6.07434
5.93646
5.75469
5.71989
5.67796
5.66391
5.59187
5.48435
5.44386
5.45069
5.47649
5.51001
5.55039
5.58224
5.6151
5.66915
5.68599
5.68222
5.66422
5.65931
5.65872
5.66019
5.6589
5.65675
5.66034
5.68206
5.71483
5.728
5.72567
5.71713
5.70535
5.6842
5.65547
5.64913
5.66193
5.67202
5.69091
5.72558
5.74856
5.74876
5.72819
5.71058
5.70182
5.69295
5.69278
5.69829
5.70404
5.7035
5.70211
5.70998
5.72535
5.74731
5.75939
5.74744
5.72781
5.72797
1
1
1
0.999999
1
0.999996
1
0.999998
0.999982
1
0.998238
1.01558
1.08015
1.186
1.47236
2.06527
2.65765
3.47663
4.5484
5.50888
6.28383
6.57881
6.64797
6.7026
6.66445
6.55226
6.34681
6.14296
6.00425
5.7268
5.61037
5.55753
5.48399
5.46137
5.4621
5.47347
5.49531
5.52483
5.55536
5.60117
5.6339
5.65754
5.68624
5.69779
5.70385
5.70664
5.68833
5.64477
5.62283
5.62351
5.64117
5.68312
5.73093
5.74966
5.74601
5.73127
5.72258
5.70509
5.67845
5.66229
5.64978
5.64073
5.64641
5.68116
5.7274
5.76202
5.77604
5.78517
5.78723
5.77904
5.7533
5.70518
5.66121
5.63626
5.6277
5.6322
5.67118
5.73413
5.77623
5.79043
1
1
1
1
1
1
1
1
1
1
1
1
1
1
1
0.998859
1.006
1.05325
1.33951
1.91487
2.73161
3.81296
4.60315
5.62059
5.9344
6.01924
6.01501
5.86044
5.82006
5.91404
5.98394
5.99781
5.94077
5.80261
5.71386
5.66372
5.60419
5.49201
5.44545
5.45145
5.46655
5.50661
5.58889
5.6946
5.73529
5.73839
5.72548
5.67956
5.62206
5.59521
5.59518
5.61104
5.65638
5.71852
5.76197
5.78115
5.77992
5.75918
5.72704
5.69576
5.65818
5.6198
5.60474
5.61412
5.65345
5.72392
5.79345
5.82921
5.83386
5.82002
5.78619
5.72039
5.65387
5.62285
5.61941
5.62563
5.64769
5.69271
5.75177
5.80405
1
1
1
1
1
1
1
1
1
1
1
1
1
1
1
1
1
1
1
0.998738
1.00773
1.17393
1.51621
2.10357
3.09208
3.99126
5.0524
5.59445
5.88332
6.21961
6.2134
6.18346
6.17836
6.11313
6.00195
5.81183
5.6854
5.56211
5.48687
5.47139
5.47175
5.48899
5.52807
5.61844
5.70911
5.72593
5.72008
5.69325
5.64234
5.61472
5.6153
5.6225
5.63659
5.67451
5.7276
5.76472
5.77839
5.77918
5.75976
5.71737
5.67671
5.64292
5.61454
5.60995
5.61968
5.65566
5.70676
5.76661
5.81169
5.81965
5.79693
5.7399
5.68129
5.65509
5.65615
5.66708
5.68593
5.7002
5.72133
5.75811
1
1
1
1
1
1
1
1
1
1
1
1
1
1
1
1
1
1
1
1
1
1
0.999936
0.998257
1.06434
1.24329
1.58272
2.44406
3.35133
4.42335
4.97647
5.28833
5.61906
5.66433
5.7434
5.82921
5.87465
5.85722
5.77953
5.71327
5.63946
5.55593
5.54004
5.55476
5.60639
5.62621
5.62059
5.62034
5.61047
5.60706
5.61791
5.64084
5.66818
5.67792
5.67695
5.68215
5.69483
5.71959
5.74807
5.75651
5.75217
5.73767
5.70386
5.66345
5.6638
5.66493
5.66185
5.66615
5.69057
5.72631
5.74364
5.7478
5.74444
5.73125
5.73295
5.74706
5.75506
5.75034
5.74167
5.73344
1
1
1
1
1
1
1
1
1
1
1
1
1
1
1
1
1
1
1
1
1
1
1
1
0.999999
1
0.999026
1.01262
1.09915
1.32419
1.99127
2.7984
3.6876
4.40844
5.04777
5.71123
5.9006
5.97582
5.96393
5.91797
5.82745
5.6751
5.51904
5.50838
5.53753
5.56848
5.57741
5.59873
5.65195
5.699
5.7103
5.70385
5.68552
5.66281
5.63168
5.59731
5.59506
5.61215
5.67958
5.76926
5.79959
5.80681
5.81056
5.79736
5.72295
5.64104
5.61052
5.60405
5.60724
5.63311
5.67974
5.72479
5.76158
5.78364
5.79707
5.80847
5.80849
5.79844
5.76752
5.70165
1
1
1
1
1
1
1
1
1
1
1
1
1
1
1
1
1
1
1
1
1
1
1
1
1
1
1
1
1
0.999705
1.00091
1.02734
1.15234
1.68834
2.36913
3.28542
4.05692
4.75499
5.42322
5.57222
5.61051
5.56764
5.55074
5.55419
5.59902
5.60472
5.60978
5.63577
5.67018
5.70231
5.71741
5.7377
5.75426
5.72661
5.61628
5.54445
5.54387
5.56616
5.61795
5.70986
5.78769
5.81379
5.82085
5.82221
5.80646
5.7346
5.64916
5.61358
5.61343
5.63242
5.65507
5.66985
5.70708
5.75777
5.80523
5.8297
5.82776
5.79917
5.73783
5.68166
1
1
1
1
1
1
1
1
1
1
1
1
1
1
1
1
1
1
1
1
1
1
1
1
1
1
1
1
1
1
1
1
1
0.998859
1.00774
1.10645
1.49092
2.00249
2.87503
3.7083
4.62165
5.33538
5.55569
5.7436
5.75375
5.7106
5.632
5.57947
5.55974
5.58653
5.68287
5.73755
5.75672
5.75641
5.70984
5.61793
5.563
5.56606
5.59212
5.63141
5.67061
5.71382
5.75976
5.79226
5.79765
5.78649
5.75955
5.72132
5.69317
5.68279
5.67566
5.67603
5.68218
5.69456
5.71689
5.74893
5.75571
5.74218
5.73526
5.72487
1
1
1
1
1
1
1
1
1
1
1
1
1
1
1
1
1
1
1
1
1
1
1
1
1
1
1
1
1
1
1
1
1
1
0.999999
1
0.99963
1.00042
1.05932
1.36472
1.8239
2.69212
3.56434
4.55705
5.31686
5.35882
5.35921
5.42228
5.37061
5.38886
5.5146
5.64343
5.75189
5.77632
5.75998
5.73567
5.7235
5.70314
5.66263
5.62022
5.60416
5.60074
5.61077
5.64342
5.69861
5.74295
5.75463
5.76935
5.81046
5.81932
5.80451
5.72772
5.653
5.64243
5.64607
5.65636
5.67167
5.68381
5.69899
5.73053
1
1
1
1
1
1
1
1
1
1
1
1
1
1
1
1
1
1
1
1
1
1
1
1
1
1
1
1
1
1
1
1
1
1
1
1
1
1
1
0.999928
0.999734
1.05615
1.29683
1.71756
2.56515
3.46039
4.46345
5.1448
5.33612
5.4281
5.46476
5.50321
5.61905
5.75232
5.78047
5.78934
5.79093
5.80933
5.80833
5.75887
5.67197
5.58443
5.55675
5.57107
5.59316
5.61717
5.67113
5.76747
5.83649
5.85214
5.84643
5.80457
5.71164
5.65292
5.63929
5.64082
5.65573
5.67082
5.68281
5.71509
1
1
1
1
1
1
1
1
1
1
1
1
1
1
1
1
1
1
1
1
1
1
1
1
1
1
1
1
1
1
1
1
1
1
1
1
1
1
1
1
1
1
0.999941
0.999465
1.04811
1.27146
1.65399
2.44202
3.56058
4.914
5.1089
5.14736
5.28856
5.47943
5.50222
5.55873
5.67216
5.80805
5.84862
5.83045
5.78888
5.72836
5.64443
5.58971
5.5733
5.5821
5.60806
5.65232
5.71792
5.77817
5.79492
5.77278
5.74261
5.73368
5.72514
5.71352
5.69647
5.68126
5.68073
5.70981
1
1
1
1
1
1
1
1
1
1
1
1
1
1
1
1
1
1
1
1
1
1
1
1
1
1
1
1
1
1
1
1
1
1
1
1
1
1
1
1
1
1
1
1
1
0.999838
0.999775
1.05001
1.26358
1.89944
2.80163
3.67954
4.63493
5.11557
5.18712
5.22688
5.31284
5.57072
5.80503
5.82631
5.82829
5.81114
5.78967
5.77624
5.72341
5.6694
5.63717
5.62347
5.63305
5.64701
5.65187
5.65599
5.6821
5.72045
5.75912
5.7767
5.78148
5.77243
5.75341
5.73086
1
1
1
1
1
1
1
1
1
1
1
1
1
1
1
1
1
1
1
1
1
1
1
1
1
1
1
1
1
1
1
1
1
1
1
1
1
1
1
1
1
1
1
1
1
1
1
1
0.999465
1.00544
1.11048
1.29456
1.80037
2.82746
4.50682
4.94307
5.02374
5.26938
5.55834
5.54297
5.54134
5.64046
5.76187
5.82796
5.82073
5.79465
5.77089
5.72862
5.67187
5.62368
5.59772
5.59091
5.59864
5.67362
5.77395
5.80148
5.80388
5.79237
5.78278
5.77516
1
1
1
1
1
1
1
1
1
1
1
1
1
1
1
1
1
1
1
1
1
1
1
1
1
1
1
1
1
1
1
1
1
1
1
1
1
1
1
1
1
1
1
1
1
1
1
1
0.999999
0.999994
1.00002
0.999619
1.00829
1.10778
1.62194
2.61587
3.49439
4.46348
5.20266
5.22046
5.1847
5.24152
5.43401
5.73262
5.83309
5.83345
5.84051
5.83666
5.82619
5.75985
5.66663
5.61347
5.60237
5.66695
5.71282
5.71781
5.71709
5.72361
5.73766
5.75924
1
1
1
1
1
1
1
1
1
1
1
1
1
1
1
1
1
1
1
1
1
1
1
1
1
1
1
1
1
1
1
1
1
1
1
1
1
1
1
1
1
1
1
1
1
1
1
1
1
1
1
0.999995
0.999999
0.999803
1.00261
1.09402
1.28367
1.73474
2.77575
4.54511
5.13408
5.08324
5.23755
5.54955
5.62528
5.56157
5.59298
5.71856
5.7929
5.77409
5.73059
5.72021
5.73232
5.74317
5.73528
5.71455
5.66797
5.65514
5.66278
5.70321
1
1
1
1
1
1
1
1
1
1
1
1
1
1
1
1
1
1
1
1
1
1
1
1
1
1
1
1
1
1
1
1
1
1
1
1
1
1
1
1
1
1
1
1
1
1
1
1
1
1
1
1
1
0.999997
0.999988
1.0001
0.99998
1.00889
1.10564
1.72074
2.89329
3.89857
4.78456
5.49214
5.52463
5.37491
5.29347
5.37048
5.55687
5.70866
5.73864
5.76644
5.8222
5.86143
5.87766
5.84966
5.7359
5.64255
5.63524
5.67187
1
1
1
1
1
1
1
1
1
1
1
1
1
1
1
1
1
1
1
1
1
1
1
1
1
1
1
1
1
1
1
1
1
1
1
1
1
1
1
1
1
1
1
1
1
1
1
1
1
1
1
1
1
1
1
1
0.999997
1
0.999897
1.00818
1.17509
1.56427
2.22428
3.45595
5.07938
5.44417
5.3746
5.45074
5.51558
5.58425
5.53856
5.51703
5.62096
5.80057
5.86886
5.82253
5.748
5.7062
5.70344
5.6992
1
1
1
1
1
1
1
1
1
1
1
1
1
1
1
1
1
1
1
1
1
1
1
1
1
1
1
1
1
1
1
1
1
1
1
1
1
1
1
1
1
1
1
1
1
1
1
1
1
1
1
1
1
1
1
1
1
1
0.999997
0.999984
1.00022
1.00348
1.04969
1.27454
2.29229
3.7161
4.71208
5.29939
5.66097
5.67614
5.59041
5.44482
5.47458
5.57801
5.72142
5.70453
5.66253
5.68605
5.75567
5.7813
1
1
1
1
1
1
1
1
1
1
1
1
1
1
1
1
1
1
1
1
1
1
1
1
1
1
1
1
1
1
1
1
1
1
1
1
1
1
1
1
1
1
1
1
1
1
1
1
1
1
1
1
1
1
1
1
1
1
1
1
0.999999
0.999999
0.99995
1.00092
1.06098
1.57973
2.36537
3.28653
4.7141
5.61099
5.68598
5.63435
5.74281
5.71556
5.65906
5.61219
5.51444
5.50024
5.61027
5.73551
1
1
1
1
1
1
1
1
1
1
1
1
1
1
1
1
1
1
1
1
1
1
1
1
1
1
1
1
1
1
1
1
1
1
1
1
1
1
1
1
1
1
1
1
1
1
1
1
1
1
1
1
1
1
1
1
1
1
1
1
1
1
0.999998
0.999994
1
1.0064
1.067
1.36681
2.09757
3.67063
4.77496
5.3446
5.69806
5.81326
5.80337
5.74688
5.61076
5.5699
5.61175
5.65177
1
1
1
1
1
1
1
1
1
1
1
1
1
1
1
1
1
1
1
1
1
1
1
1
1
1
1
1
1
1
1
1
1
1
1
1
1
1
1
1
1
1
1
1
1
1
1
1
1
1
1
1
1
1
1
1
1
1
1
1
1
1
1
0.999999
0.999999
1
1
1.00255
1.03966
1.5342
2.95568
3.94832
4.78499
5.60635
5.75777
5.76471
5.74556
5.79795
5.84122
5.76424
1
1
1
1
1
1
1
1
1
1
1
1
1
1
1
1
1
1
1
1
1
1
1
1
1
1
1
1
1
1
1
1
1
1
1
1
1
1
1
1
1
1
1
1
1
1
1
1
1
1
1
1
1
1
1
1
1
1
1
1
1
1
1
1
1
1
0.999999
0.999994
1.00002
1.01096
1.18676
1.89537
2.8317
4.31723
5.01609
5.19612
5.45089
5.73911
5.84997
5.82492
1
1
1
1
1
1
1
1
1
1
1
1
1
1
1
1
1
1
1
1
1
1
1
1
1
1
1
1
1
1
1
1
1
1
1
1
1
1
1
1
1
1
1
1
1
1
1
1
1
1
1
1
1
1
1
1
1
1
1
1
1
1
1
1
1
1
1
0.999999
0.999999
0.999982
1.00099
1.03056
1.16948
1.80609
3.608
4.63555
5.05821
5.43475
5.7162
5.70325
1
1
1
1
1
1
1
1
1
1
1
1
1
1
1
1
1
1
1
1
1
1
1
1
1
1
1
1
1
1
1
1
1
1
1
1
1
1
1
1
1
1
1
1
1
1
1
1
1
1
1
1
1
1
1
1
1
1
1
1
1
1
1
1
1
1
1
1
1
0.999998
0.999999
0.999987
1.00092
1.02711
1.38106
2.81468
4.24002
5.3459
5.57318
5.47582
1
1
1
1
1
1
1
1
1
1
1
1
1
1
1
1
1
1
1
1
1
1
1
1
1
1
1
1
1
1
1
1
1
1
1
1
1
1
1
1
1
1
1
1
1
1
1
1
1
1
1
1
1
1
1
1
1
1
1
1
1
1
1
1
1
1
1
1
1
1
1
0.999999
0.999996
1.00003
1.00838
1.27703
2.03748
3.31457
4.83024
5.60291
1
1
1
1
1
1
1
1
1
1
1
1
1
1
1
1
1
1
1
1
1
1
1
1
1
1
1
1
1
1
1
1
1
1
1
1
1
1
1
1
1
1
1
1
1
1
1
1
1
1
1
1
1
1
1
1
1
1
1
1
1
1
1
1
1
1
1
1
1
1
1
1
0.999999
0.999999
0.999998
1.00361
1.06074
1.37402
2.38172
4.62622
1
1
1
1
1
1
1
1
1
1
1
1
1
1
1
1
1
1
1
1
1
1
1
1
1
1
1
1
1
1
1
1
1
1
1
1
1
1
1
1
1
1
1
1
1
1
1
1
1
1
1
1
1
1
1
1
1
1
1
1
1
1
1
1
1
1
1
1
1
1
1
1
1
1
1
0.999995
1.00013
1.00636
1.10744
2.80765
1
1
1
1
1
1
1
1
1
1
1
1
1
1
1
1
1
1
1
1
1
1
1
1
1
1
1
1
1
1
1
1
1
1
1
1
1
1
1
1
1
1
1
1
1
1
1
1
1
1
1
1
1
1
1
1
1
1
1
1
1
1
1
1
1
1
1
1
1
1
1
1
1
1
1
1
0.999999
0.999998
1.00154
1.4437
1
1
1
1
1
1
1
1
1
1
1
1
1
1
1
1
1
1
1
1
1
1
1
1
1
1
1
1
1
1
1
1
1
1
1
1
1
1
1
1
1
1
1
1
1
1
1
1
1
1
1
1
1
1
1
1
1
1
1
1
1
1
1
1
1
1
1
1
1
1
1
1
1
1
1
1
1
1
1.00001
1.03789
1
1
1
1
1
1
1
1
1
1
1
1
1
1
1
1
1
1
1
1
1
1
1
1
1
1
1
1
1
1
1
1
1
1
1
1
1
1
1
1
1
1
1
1
1
1
1
1
1
1
1
1
1
1
1
1
1
1
1
1
1
1
1
1
1
1
1
1
1
1
1
1
1
1
1
1
1
1
1
1.00094
1
1
1
1
1
1
1
1
1
1
1
1
1
1
1
1
1
1
1
1
1
1
1
1
1
1
1
1
1
1
1
1
1
1
1
1
1
1
1
1
1
1
1
1
1
1
1
1
1
1
1
1
1
1
1
1
1
1
1
1
1
1
1
1
1
1
1
1
1
1
1
1
1
1
1
1
1
1
1
1.00001
1
1
1
1
1
1
1
1
1
1
1
1
1
1
1
1
1
1
1
1
1
1
1
1
1
1
1
1
1
1
1
1
1
1
1
1
1
1
1
1
1
1
1
1
1
1
1
1
1
1
1
1
1
1
1
1
1
1
1
1
1
1
1
1
1
1
1
1
1
1
1
1
1
1
1
1
1
1
1
1
1
1
1
1
1
1
1
1
1
1
1
1
1
1
1
1
1
1
1
1
1
1
1
1
1
1
1
1
1
1
1
1
1
1
1
1
1
1
1
1
1
1
1
1
1
1
1
1
1
1
1
1
1
1
1
1
1
1
1
1
1
1
1
1
1
1
1
1
1
1
1
1
1
1
1
1
1
1
1
1
1
1
1
1
1
1
1
1
1
1
1
1
1
1
1
1
1
1
1
1
1
1
1
1
1
1
1
1
1
1
1
1
1
1
1
1
1
1
1
1
1
1
1
1
1
1
1
1
1
1
1
1
1
1
1
1
1
1
1
1
1
1
1
1
1
1
1
1
1
1
1
1
1
1
1
1
1
1
1
1
1
1
1
1
1
1
1
1
1
1
1
1
1
1
1
1
1
1
1
1
1
1
1
1
1
1
1
1
1
1
1
1
1
1
1
1
1
1
1
1
1
1
1
1
1
1
1
1
1
1
1
1
1
1
1
1
1
1
1
1
1
1
1
1
1
1
1
1
1
1
1
1
1
1
1
1
1
1
1
1
1
1
1
1
1
1
1
1
1
1
1
1
1
1
1
1
1
1
1
1
1
1
1
1
1
1
1
1
1
1
1
1
1
1
1
1
1
1
1
1
1
1
1
1
1
1
1
1
1
1
1
1
1
1
1
1
1
1
1
1
1
1
1
1
1
1
1
1
1
1
1
1
1
1
1
1
1
1
1
1
1
1
1
1
1
1
1
1
1
1
1
1
1
1
1
1
1
1
1
1
1
1
1
1
1
1
1
1
1
1
1
1
1
1
1
1
1
1
1
1
1
1
1
1
1
1
1
1
1
1
1
1
1
1
1
1
1
1
1
1
1
1
1
1
1
1
1
1
1
1
1
1
1
1
1
1
1
1
1
1
1
1
1
1
1
1
1
1
1
1
1
1
1
1
1
1
1
1
1
1
1
1
1
1
1
1
1
1
1
1
1
1
1
1
1
1
1
1
1
1
1
1
1
1
1
1
1
1
1
1
1
1
1
1
1
1
1
1
1
1
1
1
1
1
1
1
1
1
1
1
1
1
1
1
1
1
1
1
1
1
1
1
1
1
1
1
1
1
1
1
1
1
1
1
1
1
1
1
1
1
1
1
1
1
1
1
1
1
1
1
1
1
1
1
1
1
1
1
1
1
1
1
1
1
1
1
1
1
1
1
1
1
1
1
1
1
1
1
1
1
1
1
1
1
1
1
1
1
1
1
1
1
1
1
1
1
1
1
1
1
)
;

boundaryField
{
    inlet
    {
        type            fixedValue;
        value           uniform 1;
    }
    outlet
    {
        type            zeroGradient;
    }
    bottom
    {
        type            symmetryPlane;
    }
    top
    {
        type            symmetryPlane;
    }
    obstacle
    {
        type            zeroGradient;
    }
    defaultFaces
    {
        type            empty;
    }
}


// ************************************************************************* //
