/*--------------------------------*- C++ -*----------------------------------*\
| =========                 |                                                 |
| \\      /  F ield         | OpenFOAM: The Open Source CFD Toolbox           |
|  \\    /   O peration     | Version:  2206                                  |
|   \\  /    A nd           | Website:  www.openfoam.com                      |
|    \\/     M anipulation  |                                                 |
\*---------------------------------------------------------------------------*/
FoamFile
{
    version     2.0;
    format      ascii;
    arch        "LSB;label=32;scalar=64";
    class       volVectorField;
    location    "0.18";
    object      U;
}
// * * * * * * * * * * * * * * * * * * * * * * * * * * * * * * * * * * * * * //

dimensions      [0 1 -1 0 0 0 0];

internalField   nonuniform List<vector> 
4800
(
(5.74747 6.9212e-15 0)
(5.74747 5.47428e-15 0)
(5.74747 2.92117e-14 0)
(5.74747 5.52929e-14 0)
(5.74747 4.53845e-14 0)
(5.74747 -6.43111e-15 0)
(5.74747 -2.59111e-14 0)
(5.74747 -2.74381e-15 0)
(5.74747 4.15105e-14 0)
(5.74747 7.5413e-14 0)
(5.74747 1.03901e-13 0)
(5.74747 1.12689e-13 0)
(5.74747 8.44179e-14 0)
(5.74747 -3.65163e-14 0)
(5.74747 -5.04854e-14 0)
(5.74747 -7.48896e-14 0)
(5.74747 7.26792e-16 0)
(5.74747 -4.94685e-14 0)
(5.74747 -4.96152e-14 0)
(5.74747 -3.20655e-14 0)
(5.74747 -8.79152e-15 0)
(5.74747 -2.77048e-15 0)
(5.74747 -1.80698e-14 0)
(5.74747 -7.01988e-14 0)
(5.74747 -1.00757e-13 0)
(5.74747 -8.20742e-14 0)
(5.74747 -6.71116e-14 0)
(5.74747 -5.21723e-14 0)
(5.74747 -3.04353e-14 0)
(5.74747 -1.97067e-14 0)
(5.74747 -2.7048e-14 0)
(5.74747 -3.80099e-14 0)
(5.74747 -4.14238e-14 0)
(5.74747 -2.72547e-14 0)
(5.74747 1.16353e-15 0)
(5.74747 3.51294e-14 0)
(5.74747 3.17722e-15 0)
(5.74747 -2.1237e-14 0)
(5.74747 -5.12222e-14 0)
(5.74747 -1.11363e-13 0)
(5.74747 6.06438e-15 0)
(5.74747 2.52344e-14 0)
(5.74747 3.07586e-14 0)
(5.74747 3.81566e-14 0)
(5.74747 3.33658e-14 0)
(5.74747 1.38857e-14 0)
(5.74747 -7.88469e-15 0)
(5.74747 -1.80798e-14 0)
(5.74747 -6.05771e-14 0)
(5.74747 -2.96418e-14 0)
(5.74747 4.60513e-14 0)
(5.74747 3.72164e-14 0)
(5.74747 -3.75131e-14 0)
(5.74747 -1.00897e-13 0)
(5.74747 -1.25728e-13 0)
(5.74747 -8.93454e-14 0)
(5.74747 -5.61697e-14 0)
(5.74747 -7.58531e-14 0)
(5.74747 -5.75733e-14 0)
(5.74747 -5.13422e-15 0)
(5.74747 4.00036e-14 0)
(5.74747 1.80531e-14 0)
(5.74747 2.39741e-14 0)
(5.74747 -1.70429e-14 0)
(5.74747 -6.57947e-14 0)
(5.74747 -1.41234e-13 0)
(5.74747 -1.38911e-13 0)
(5.74747 -1.31409e-13 0)
(5.74747 -1.04598e-13 0)
(5.74747 -3.20789e-14 0)
(5.74747 2.16471e-14 0)
(5.74747 1.22388e-14 0)
(5.74747 -2.27206e-14 0)
(5.74747 -3.4986e-14 0)
(5.74747 -6.30109e-16 0)
(5.74747 5.31325e-14 0)
(5.74747 -1.51026e-14 0)
(5.74747 -1.17647e-13 0)
(5.74747 -1.07819e-13 0)
(5.74747 -8.11005e-14 0)
(5.74747 4.70748e-15 0)
(5.74747 6.43778e-15 0)
(5.74747 -3.94601e-14 0)
(5.74747 -7.24058e-14 0)
(5.74747 -7.52263e-14 0)
(5.74747 -5.67931e-14 0)
(5.74747 -7.43462e-15 0)
(5.74747 3.77799e-14 0)
(5.74747 2.32273e-14 0)
(5.74747 -7.79468e-15 0)
(5.74747 -2.24205e-14 0)
(5.74747 -4.50344e-14 0)
(5.74747 -5.42227e-14 0)
(5.74747 -5.66164e-14 0)
(5.74747 -4.68514e-14 0)
(5.74747 -4.84317e-14 0)
(5.74747 -8.60582e-14 0)
(5.74747 -4.85684e-14 0)
(5.74747 7.28126e-14 0)
(5.74747 1.50003e-13 0)
(5.74747 1.13903e-13 0)
(5.74747 9.00556e-14 0)
(5.74747 1.00394e-13 0)
(5.74747 9.08057e-14 0)
(5.74747 8.30177e-14 0)
(5.74747 4.2394e-14 0)
(5.74747 5.791e-15 0)
(5.74747 -8.44146e-15 0)
(5.74747 -3.15655e-14 0)
(5.74747 -2.19905e-14 0)
(5.74747 3.35591e-14 0)
(5.74747 6.10372e-14 0)
(5.74747 5.93736e-14 0)
(5.74747 4.92385e-14 0)
(5.74747 -1.3349e-14 0)
(5.74747 -2.77281e-14 0)
(5.74747 -5.30792e-14 0)
(5.74747 -7.92737e-14 0)
(5.74747 -9.82903e-14 0)
(5.74747 -3.51985e-14 0)
(5.74747 -2.43375e-15 0)
(5.74747 -1.29322e-14 0)
(5.74747 -1.82131e-14 0)
(5.74747 -5.27391e-14 0)
(5.74747 -4.91685e-14 0)
(5.74747 -1.86632e-14 0)
(5.74747 -5.26424e-15 0)
(5.74747 3.63596e-14 0)
(5.74747 6.62248e-14 0)
(5.74747 4.97319e-14 0)
(5.74747 -2.45009e-14 0)
(5.74747 -3.851e-14 0)
(5.74747 3.80466e-14 0)
(5.74747 7.1349e-14 0)
(5.74747 8.4748e-14 0)
(5.74747 2.3054e-14 0)
(5.74747 3.38758e-14 0)
(5.74747 7.52563e-14 0)
(5.74747 1.09792e-13 0)
(5.74747 8.62682e-14 0)
(5.74747 6.06371e-14 0)
(5.74747 6.9512e-14 0)
(5.74747 1.11946e-13 0)
(5.74747 1.7332e-13 0)
(5.74747 1.87216e-13 0)
(5.74747 1.82211e-13 0)
(5.74747 2.1225e-13 0)
(5.74747 1.86062e-13 0)
(5.74747 1.28192e-13 0)
(5.74747 9.39429e-14 0)
(5.74747 4.68614e-14 0)
(5.74747 9.21692e-14 0)
(5.74747 1.184e-13 0)
(5.74747 1.08919e-13 0)
(5.74747 1.97234e-14 0)
(5.74747 -1.32356e-14 0)
(5.74747 2.12437e-14 0)
(5.74747 3.84e-14 0)
(5.74747 2.78581e-14 0)
(5.74747 -3.43519e-14 0)
(5.74747 -5.66098e-15 0)
(5.74747 -2.52044e-15 0)
(5.74747 2.32807e-14 0)
(5.74747 2.84649e-14 0)
(5.74747 4.68148e-14 0)
(5.74747 6.1874e-14 0)
(5.74747 4.67647e-14 0)
(5.74747 -5.72766e-15 0)
(5.74747 -3.98602e-14 0)
(5.74747 -5.50662e-14 0)
(5.74747 -7.40528e-14 0)
(5.74747 -7.65599e-14 0)
(5.74747 -2.65312e-14 0)
(5.74747 1.95e-14 0)
(5.74747 1.84532e-14 0)
(5.74747 -2.63379e-15 0)
(5.74747 3.12154e-14 0)
(5.74747 4.07704e-14 0)
(5.74747 4.76082e-14 0)
(5.74747 9.28027e-14 0)
(5.74747 1.82118e-13 0)
(5.74747 1.91943e-13 0)
(5.74747 1.61231e-13 0)
(5.74747 1.08215e-13 0)
(5.74747 6.63881e-14 0)
(5.74747 6.7795e-14 0)
(5.74747 9.26827e-14 0)
(5.74747 1.14233e-13 0)
(5.74747 1.32826e-13 0)
(5.74747 1.29209e-13 0)
(5.74747 1.3324e-13 0)
(5.74747 1.40284e-13 0)
(5.74747 1.55807e-13 0)
(5.74747 1.49786e-13 0)
(5.74747 1.19891e-13 0)
(5.74747 6.63615e-14 0)
(5.74747 1.10006e-13 0)
(5.74747 1.21414e-13 0)
(5.74747 1.03785e-13 0)
(5.74747 4.8923e-14 0)
(5.74747 2.61712e-15 0)
(5.74747 9.88837e-15 0)
(5.74747 2.52044e-15 0)
(5.74747 3.19689e-14 0)
(5.74747 2.28273e-14 0)
(5.74747 -2.26839e-14 0)
(5.74747 -4.13671e-14 0)
(5.74747 -6.10305e-14 0)
(5.74747 -2.2984e-14 0)
(5.74747 4.8375e-15 0)
(5.74747 -1.53126e-14 0)
(5.74747 -4.84217e-14 0)
(5.74747 -8.53581e-14 0)
(5.74747 -7.65866e-14 0)
(5.74747 -7.82202e-14 0)
(5.74747 -7.1649e-14 0)
(5.74747 3.92401e-15 0)
(5.74747 1.91266e-14 0)
(5.74747 1.7603e-14 0)
(5.74747 -2.88316e-14 0)
(5.74747 -2.58311e-14 0)
(5.74747 8.60149e-16 0)
(5.74747 7.53463e-16 0)
(5.74747 -3.63329e-14 0)
(5.74747 -4.42943e-14 0)
(5.74747 -1.87399e-14 0)
(5.74747 7.43795e-15 0)
(5.74747 9.94505e-15 0)
(5.74747 3.91001e-14 0)
(5.74747 5.93569e-14 0)
(5.74747 6.88786e-14 0)
(5.74747 2.09536e-14 0)
(5.74747 -1.77364e-15 0)
(5.74747 -8.68817e-15 0)
(5.74747 9.60166e-16 0)
(5.74747 -2.52377e-15 0)
(5.74747 3.38458e-14 0)
(5.74747 7.01221e-14 0)
(5.74747 4.49811e-14 0)
(5.74747 5.32167e-14 0)
(5.74747 -1.02018e-15 0)
(5.74747 3.01052e-15 0)
(5.74747 -1.34123e-14 0)
(5.74747 -2.26006e-14 0)
(5.74747 -4.13171e-14 0)
(5.74747 -3.2989e-14 0)
(5.74747 -3.78199e-14 0)
(5.74747 -5.791e-15 0)
(5.74747 4.33342e-14 0)
(5.74747 5.01153e-14 0)
(5.74747 2.46309e-14 0)
(5.74747 1.75564e-14 0)
(5.74747 -9.66834e-14 0)
(5.74747 -1.27459e-13 0)
(5.74747 -1.22208e-13 0)
(5.74747 -1.54327e-14 0)
(5.74747 4.69981e-14 0)
(5.74747 4.82117e-14 0)
(5.74747 -3.24156e-14 0)
(5.74747 -1.55063e-13 0)
(5.74747 -1.83815e-13 0)
(5.74747 -1.75004e-13 0)
(5.74747 -8.58415e-14 0)
(5.74747 -8.56481e-15 0)
(5.74747 4.82983e-14 0)
(5.74747 1.01978e-13 0)
(5.74747 8.21609e-14 0)
(5.74747 6.10172e-14 0)
(5.74747 5.58796e-14 0)
(5.74747 6.16173e-14 0)
(5.74747 6.62781e-14 0)
(5.74747 7.1139e-14 0)
(5.74747 9.54998e-14 0)
(5.74747 1.20931e-13 0)
(5.74747 2.09643e-13 0)
(5.74747 2.32894e-13 0)
(5.74747 2.59175e-13 0)
(5.74747 2.60395e-13 0)
(5.74747 3.00969e-13 0)
(5.74747 1.06739e-13 0)
(5.74747 -2.5171e-15 0)
(5.74747 -1.84965e-14 0)
(5.74747 -9.05156e-15 0)
(5.74747 -1.16353e-14 0)
(5.74747 1.12019e-14 0)
(5.74747 3.09387e-14 0)
(5.74747 6.23641e-14 0)
(5.74747 5.96703e-14 0)
(5.74747 3.91501e-14 0)
(5.74747 1.38291e-14 0)
(5.74747 3.0822e-14 0)
(5.74747 6.7575e-14 0)
(5.74747 8.51047e-14 0)
(5.74747 4.88184e-14 0)
(5.74747 7.70133e-16 0)
(5.74747 2.23839e-14 0)
(5.74747 7.93137e-15 0)
(5.74747 -4.75849e-14 0)
(5.74747 -7.60631e-14 0)
(5.74747 -5.46894e-14 0)
(5.74747 -3.84266e-14 0)
(5.74747 3.89067e-15 0)
(5.74747 6.47145e-14 0)
(5.74747 8.85253e-14 0)
(5.74747 6.3591e-14 0)
(5.74747 4.34575e-14 0)
(5.74747 2.74314e-14 0)
(5.74747 4.39743e-14 0)
(5.74747 6.22774e-14 0)
(5.74747 8.68917e-14 0)
(5.74747 1.01814e-13 0)
(5.74747 1.28119e-13 0)
(5.74747 1.29012e-13 0)
(5.74747 2.23512e-13 0)
(5.74747 1.85919e-13 0)
(5.74747 1.7557e-13 0)
(5.74747 1.61881e-13 0)
(5.74747 1.48806e-13 0)
(5.74747 1.83492e-13 0)
(5.74747 1.00851e-13 0)
(5.74747 2.65046e-15 0)
(5.74747 -7.63132e-15 0)
(5.74747 1.12353e-15 0)
(5.74747 2.80315e-14 0)
(5.74747 2.44242e-14 0)
(5.74747 -1.26355e-14 0)
(5.74747 -5.24857e-14 0)
(5.74747 -4.6158e-14 0)
(5.74747 -4.4551e-14 0)
(5.74747 -1.912e-14 0)
(5.74747 3.00185e-14 0)
(5.74747 1.04938e-13 0)
(5.74747 1.47282e-13 0)
(5.74747 5.59397e-14 0)
(5.74747 -4.11271e-14 0)
(5.74747 -6.38777e-14 0)
(5.74747 -5.67831e-14 0)
(5.74747 -4.66314e-14 0)
(5.74747 -5.11688e-14 0)
(5.74747 -4.20506e-14 0)
(5.74747 -3.61062e-14 0)
(5.74747 -1.58927e-14 0)
(5.74747 -1.10852e-14 0)
(5.74747 -4.10504e-14 0)
(5.74747 -9.44063e-14 0)
(5.74747 -1.03588e-13 0)
(5.74747 -1.29339e-13 0)
(5.74747 -1.38394e-13 0)
(5.74747 -1.43721e-13 0)
(5.74747 -1.13206e-13 0)
(5.74747 -5.50762e-14 0)
(5.74747 1.74397e-14 0)
(5.74747 5.66565e-14 0)
(5.74747 7.49296e-14 0)
(5.74747 7.25792e-14 0)
(5.74747 1.89266e-14 0)
(5.74747 -6.02104e-14 0)
(5.74747 -8.92454e-14 0)
(5.74747 -7.60131e-14 0)
(5.74747 1.17345e-13 0)
(5.74747 7.96804e-16 0)
(5.74747 -1.14553e-14 0)
(5.74747 -1.65028e-14 0)
(5.74747 -4.03003e-14 0)
(5.74747 -6.71216e-14 0)
(5.74747 -1.04721e-13 0)
(5.74747 -4.69881e-14 0)
(5.74747 5.00086e-17 0)
(5.74747 7.56797e-15 0)
(5.74747 -1.05151e-14 0)
(5.74747 -1.69263e-14 0)
(5.74747 -6.48445e-15 0)
(5.74747 -2.52444e-14 0)
(5.74747 -4.64147e-14 0)
(5.74747 -7.23092e-14 0)
(5.74747 -8.99355e-14 0)
(5.74747 -2.95818e-14 0)
(5.74747 -3.02852e-14 0)
(5.74747 -3.868e-14 0)
(5.74747 -8.37778e-14 0)
(5.74747 -8.41179e-14 0)
(5.74747 -6.68515e-14 0)
(5.74747 -6.35043e-14 0)
(5.74747 -7.06522e-14 0)
(5.74747 -7.17924e-14 0)
(5.74747 -8.85286e-14 0)
(5.74747 -1.16013e-13 0)
(5.74747 -1.7534e-13 0)
(5.74747 -2.06686e-13 0)
(5.74747 -1.88443e-13 0)
(5.74747 -1.40108e-13 0)
(5.74747 -1.5156e-13 0)
(5.74747 -1.3226e-13 0)
(5.74747 -1.03951e-13 0)
(5.74747 -6.86285e-14 0)
(5.74747 -9.50331e-14 0)
(5.74747 -1.08682e-13 0)
(5.74747 -1.25008e-13 0)
(5.74747 -4.85384e-14 0)
(5.74747 5.08704e-14 0)
(5.74747 -4.08404e-15 0)
(5.74747 5.62097e-15 0)
(5.74747 -2.84316e-14 0)
(5.74747 -5.60997e-14 0)
(5.74747 -4.87117e-14 0)
(5.74747 -5.92769e-15 0)
(5.74747 5.93836e-14 0)
(5.74747 6.65148e-14 0)
(5.74747 5.12055e-14 0)
(5.74747 1.42258e-14 0)
(5.74747 3.73398e-15 0)
(5.74747 -2.53377e-15 0)
(5.74747 1.02018e-15 0)
(5.74747 7.94471e-15 0)
(5.74747 1.04951e-14 0)
(5.74747 1.28389e-14 0)
(5.74747 -2.93051e-15 0)
(5.74747 -1.10786e-14 0)
(5.74747 -3.31057e-14 0)
(5.74747 -3.74231e-14 0)
(5.74747 -2.92317e-14 0)
(5.74747 -7.64465e-15 0)
(5.74747 -1.89599e-14 0)
(5.74747 -2.26539e-14 0)
(5.74747 6.99788e-15 0)
(5.74747 -2.90617e-14 0)
(5.74747 -6.77617e-14 0)
(5.74747 -6.5678e-14 0)
(5.74747 -6.60947e-14 0)
(5.74747 -7.78134e-14 0)
(5.74747 -1.18527e-13 0)
(5.74747 -1.06945e-13 0)
(5.74747 -7.63165e-14 0)
(5.74747 -2.30873e-14 0)
(5.74747 -4.85417e-14 0)
(5.74747 -7.87036e-14 0)
(5.74747 -4.38576e-14 0)
(5.74747 -1.05885e-14 0)
(5.74747 3.834e-15 0)
(5.74747 4.02669e-14 0)
(5.74747 1.5376e-14 0)
(5.74747 4.62913e-14 0)
(5.74747 3.88434e-14 0)
(5.74747 4.22706e-14 0)
(5.74747 4.12271e-14 0)
(5.74747 3.23289e-14 0)
(5.74747 -9.4483e-15 0)
(5.74747 -1.1772e-14 0)
(5.74747 6.27775e-15 0)
(5.74747 6.50112e-16 0)
(5.74747 -8.64149e-15 0)
(5.74747 -7.39128e-15 0)
(5.74747 -5.20857e-14 0)
(5.74747 -4.59179e-14 0)
(5.74747 -6.85118e-15 0)
(5.74747 2.89983e-14 0)
(5.74747 3.25423e-14 0)
(5.74747 7.63799e-15 0)
(5.74747 -3.06453e-14 0)
(5.74747 -4.41743e-14 0)
(5.74747 -4.75515e-14 0)
(5.74747 -5.93836e-14 0)
(5.74747 -1.00274e-13 0)
(5.74747 -1.17234e-13 0)
(5.74747 -1.11089e-13 0)
(5.74747 -4.72082e-14 0)
(5.74747 -1.38157e-14 0)
(5.74747 -1.14786e-14 0)
(5.74747 9.58165e-15 0)
(5.74747 2.01868e-14 0)
(5.74747 4.97186e-14 0)
(5.74747 7.09156e-14 0)
(5.74747 4.0797e-14 0)
(5.74747 2.03902e-14 0)
(5.74747 1.22921e-14 0)
(5.74747 -1.76931e-14 0)
(5.74747 -4.93152e-14 0)
(5.74747 -7.00854e-14 0)
(5.74747 -5.80234e-14 0)
(5.74747 -3.77074e-15 0)
(5.74747 1.61028e-15 0)
(5.74747 -2.02035e-15 0)
(5.74747 4.53845e-14 0)
(5.74747 1.02388e-13 0)
(5.74747 1.02784e-13 0)
(5.74747 6.88852e-14 0)
(5.74747 -1.12053e-14 0)
(5.74747 -1.34823e-14 0)
(5.74747 2.08869e-14 0)
(5.74747 5.28091e-15 0)
(5.74747 -5.01753e-14 0)
(5.74747 -7.03922e-14 0)
(5.74747 -6.88519e-14 0)
(5.74747 -5.33592e-14 0)
(5.74747 -5.48961e-14 0)
(5.74747 -3.2539e-14 0)
(5.74747 -3.21022e-14 0)
(5.74747 -1.30423e-14 0)
(5.74747 5.81567e-14 0)
(5.74747 4.62913e-14 0)
(5.74747 -2.95051e-15 0)
(5.74747 -1.1565e-13 0)
(5.74747 -1.41061e-13 0)
(5.74747 -1.04665e-13 0)
(5.74747 -5.80134e-14 0)
(5.74747 -1.84132e-14 0)
(5.74747 -4.2674e-16 0)
(5.74747 1.32356e-14 0)
(5.74747 2.93784e-14 0)
(5.74747 3.79832e-14 0)
(5.74747 -3.73731e-15 0)
(5.74747 -2.1237e-15 0)
(5.74747 -2.5271e-15 0)
(5.74747 -2.1377e-14 0)
(5.74747 -1.03551e-14 0)
(5.74747 -2.64379e-15 0)
(5.74747 -1.19754e-14 0)
(5.74747 -3.54795e-14 0)
(5.74747 -3.78399e-14 0)
(5.74747 -4.52484e-14 0)
(5.74747 -2.36174e-14 0)
(5.74747 -9.04156e-15 0)
(5.74747 2.44809e-14 0)
(5.74747 1.82298e-14 0)
(5.74747 9.00489e-15 0)
(5.74747 2.36974e-14 0)
(5.74747 6.77817e-14 0)
(5.74747 5.68465e-14 0)
(5.74747 1.77031e-14 0)
(5.74747 2.09003e-14 0)
(5.74747 -4.66747e-16 0)
(5.74747 -2.02868e-14 0)
(5.74747 1.1702e-15 0)
(5.74747 -2.04369e-15 0)
(5.74747 6.10772e-15 0)
(5.74747 -2.60378e-15 0)
(5.74747 -2.44709e-15 0)
(5.74747 2.43175e-14 0)
(5.74747 3.51961e-14 0)
(5.74747 6.07005e-14 0)
(5.74747 5.812e-14 0)
(5.74747 1.17987e-14 0)
(5.74747 1.23721e-14 0)
(5.74747 1.74563e-14 0)
(5.74747 3.19989e-14 0)
(5.74747 5.95069e-14 0)
(5.74747 5.33625e-14 0)
(5.74747 8.14174e-14 0)
(5.74747 6.32843e-14 0)
(5.74747 -7.83469e-16 0)
(5.74747 -7.18124e-15 0)
(5.74747 8.82486e-15 0)
(5.74747 4.25907e-14 0)
(5.74747 1.59528e-14 0)
(5.74747 2.45309e-14 0)
(5.74747 5.07288e-14 0)
(5.74747 5.71499e-14 0)
(5.74747 7.23992e-14 0)
(5.74747 7.3416e-14 0)
(5.74747 2.64837e-14 0)
(5.74747 1.30256e-14 0)
(5.74747 3.0772e-14 0)
(5.74747 -2.20705e-15 0)
(5.74747 -1.87466e-14 0)
(5.74747 -6.49445e-15 0)
(5.74747 2.68846e-14 0)
(5.74747 4.53478e-14 0)
(5.74747 3.4976e-14 0)
(5.74747 -5.29458e-14 0)
(5.74747 -1.14333e-13 0)
(5.74747 -1.07995e-13 0)
(5.74747 -4.09004e-14 0)
(5.74747 -3.54761e-14 0)
(5.74747 2.05169e-14 0)
(5.74747 1.3671e-13 0)
(5.74747 1.38074e-13 0)
(5.74747 1.30162e-13 0)
(5.74747 1.12616e-13 0)
(5.74747 1.27462e-13 0)
(5.74747 1.59411e-13 0)
(5.74747 2.19508e-13 0)
(5.74747 2.5303e-13 0)
(5.74747 1.60528e-13 0)
(5.74747 8.26976e-14 0)
(5.74747 5.26024e-14 0)
(5.74747 6.57747e-14 0)
(5.74747 1.27582e-13 0)
(5.74747 1.78774e-13 0)
(5.74747 1.62315e-13 0)
(5.74747 1.16367e-13 0)
(5.74747 1.1396e-13 0)
(5.74747 1.03188e-13 0)
(5.74747 9.84003e-14 0)
(5.74747 1.39561e-13 0)
(5.74747 9.25126e-14 0)
(5.74747 6.92386e-14 0)
(5.74747 4.90418e-14 0)
(5.74747 1.12603e-13 0)
(5.74747 1.42948e-13 0)
(5.74747 1.05893e-13 0)
(5.74747 1.78297e-14 0)
(5.74747 2.37708e-15 0)
(5.74747 -2.72947e-14 0)
(5.74747 -1.83898e-14 0)
(5.74747 5.91102e-15 0)
(5.74747 3.55395e-15 0)
(5.74747 -2.23205e-14 0)
(5.74747 -6.61748e-14 0)
(5.74747 -6.10039e-14 0)
(5.74747 -6.23608e-14 0)
(5.74747 -3.93335e-14 0)
(5.74747 -2.00268e-14 0)
(5.74747 2.65746e-14 0)
(5.74747 4.6268e-14 0)
(5.74747 9.83703e-14 0)
(5.74747 1.66785e-13 0)
(5.74747 1.73817e-13 0)
(5.74747 1.552e-13 0)
(5.74747 1.25942e-13 0)
(5.74747 9.86537e-14 0)
(5.74747 8.93921e-14 0)
(5.74747 1.32149e-13 0)
(5.74747 1.5551e-13 0)
(5.74747 1.39637e-13 0)
(5.74747 8.04672e-14 0)
(5.74747 4.32308e-14 0)
(5.74747 6.77684e-14 0)
(5.74747 6.9512e-14 0)
(5.74747 1.47709e-13 0)
(5.74747 1.72536e-13 0)
(5.74747 1.59564e-13 0)
(5.74747 1.41504e-13 0)
(5.74747 1.13736e-13 0)
(5.74747 1.3645e-13 0)
(5.74747 8.53814e-14 0)
(5.74747 2.02335e-14 0)
(5.74747 -2.83816e-14 0)
(5.74747 3.45393e-15 0)
(5.74747 6.40444e-14 0)
(5.74747 6.47104e-14 0)
(5.74747 -1.77831e-14 0)
(5.74747 -4.41776e-14 0)
(5.74747 -4.66781e-14 0)
(5.74747 -6.15206e-14 0)
(5.74747 -6.68682e-14 0)
(5.74747 -6.95887e-14 0)
(5.74747 -5.63897e-14 0)
(5.74747 -2.06836e-14 0)
(5.74747 -8.41145e-15 0)
(5.74747 -8.46146e-15 0)
(5.74747 -2.47709e-15 0)
(5.74747 -2.7038e-15 0)
(5.74747 -2.36874e-14 0)
(5.74747 -2.70813e-14 0)
(5.74747 -3.36291e-14 0)
(5.74747 3.96669e-14 0)
(5.74747 9.23159e-14 0)
(5.74747 1.03515e-13 0)
(5.74747 8.17808e-15 0)
(5.74747 -5.70098e-14 0)
(5.74747 -3.32557e-14 0)
(5.74747 -1.46992e-14 0)
(5.74747 1.22921e-14 0)
(5.74747 1.45058e-14 0)
(5.74747 -5.75766e-15 0)
(5.74747 -3.68064e-14 0)
(5.74747 -4.26674e-14 0)
(5.74747 -1.42858e-14 0)
(5.74747 4.48077e-15 0)
(5.74747 -8.63482e-15 0)
(5.74747 -1.48392e-14 0)
(5.74747 4.52545e-14 0)
(5.74747 3.09687e-14 0)
(5.74747 5.9677e-15 0)
(5.74747 1.40058e-14 0)
(5.74747 2.41942e-14 0)
(5.74747 5.9927e-14 0)
(5.74747 1.24738e-13 0)
(5.74747 1.48966e-13 0)
(5.74747 1.45424e-13 0)
(5.74747 -2.05035e-15 0)
(5.74747 -3.53394e-16 0)
(5.74747 -1.19021e-15 0)
(5.74747 -4.19739e-15 0)
(5.74747 -3.05053e-15 0)
(5.74747 1.40758e-14 0)
(5.74747 4.10504e-14 0)
(5.74747 5.53262e-14 0)
(5.74747 2.30673e-14 0)
(5.74747 1.03551e-14 0)
(5.74747 2.57811e-14 0)
(5.74747 5.3896e-14 0)
(5.74747 -2.81049e-15 0)
(5.74747 -1.52426e-14 0)
(5.74747 1.44425e-14 0)
(5.74747 3.17121e-14 0)
(5.74747 2.67146e-14 0)
(5.74747 2.60612e-14 0)
(5.74747 4.14138e-14 0)
(5.74747 5.37426e-15 0)
(5.74747 -1.11586e-14 0)
(5.74747 -7.02255e-14 0)
(5.74747 -8.43746e-14 0)
(5.74747 -3.59495e-14 0)
(5.74747 3.86433e-14 0)
(5.74747 6.27108e-15 0)
(5.74747 -3.59829e-14 0)
(5.74747 -8.63983e-14 0)
(5.74747 -8.60615e-14 0)
(5.74747 -5.98337e-14 0)
(5.74747 -4.44143e-14 0)
(5.74747 -1.03681e-13 0)
(5.74747 -5.17689e-14 0)
(5.74747 -3.14388e-15 0)
(5.74747 5.2189e-14 0)
(5.74747 7.02188e-14 0)
(5.74747 5.42027e-14 0)
(5.74747 1.02014e-13 0)
(5.74747 2.03632e-13 0)
(5.74747 2.20895e-13 0)
(5.74747 1.06685e-15 0)
(5.74747 3.78732e-15 0)
(5.74747 1.39891e-14 0)
(5.74747 2.42575e-14 0)
(5.74747 1.99334e-14 0)
(5.74747 1.7123e-14 0)
(5.74747 2.06602e-14 0)
(5.74747 1.32456e-14 0)
(5.74747 -2.6898e-14 0)
(5.74747 -3.01585e-14 0)
(5.74747 -1.79031e-14 0)
(5.74747 2.35374e-15 0)
(5.74747 1.95634e-14 0)
(5.74747 3.72431e-14 0)
(5.74747 7.31093e-14 0)
(5.74747 6.74583e-14 0)
(5.74747 -2.23705e-15 0)
(5.74747 -1.99534e-14 0)
(5.74747 1.82565e-14 0)
(5.74747 1.31223e-14 0)
(5.74747 -1.29959e-13 0)
(5.74747 -1.18147e-13 0)
(5.74747 -7.68366e-14 0)
(5.74747 -4.94719e-14 0)
(5.74747 -3.93568e-14 0)
(5.74747 -3.40592e-14 0)
(5.74747 -3.0972e-14 0)
(5.74747 -5.72332e-14 0)
(5.74747 -4.31308e-14 0)
(5.74747 2.80949e-14 0)
(5.74747 1.05805e-13 0)
(5.74747 1.86699e-15 0)
(5.74747 -9.27027e-14 0)
(5.74747 -8.65383e-14 0)
(5.74747 -3.65096e-14 0)
(5.74747 -1.47859e-14 0)
(5.74747 2.40642e-14 0)
(5.74747 1.18664e-13 0)
(5.74747 1.5168e-13 0)
(5.74747 1.81208e-13 0)
(5.74747 -5.88435e-15 0)
(5.74747 -4.75749e-15 0)
(5.74747 -1.69029e-14 0)
(5.74747 -3.22189e-14 0)
(5.74747 -2.60512e-14 0)
(5.74747 -4.0637e-14 0)
(5.74747 -4.91618e-14 0)
(5.74747 -5.46728e-14 0)
(5.74747 -7.57931e-14 0)
(5.74747 -5.67298e-14 0)
(5.74747 -3.54995e-14 0)
(5.74747 -1.48226e-14 0)
(5.74747 6.22441e-15 0)
(5.74747 1.81998e-14 0)
(5.74747 -3.10987e-14 0)
(5.74747 -3.74365e-14 0)
(5.74747 -3.90567e-14 0)
(5.74747 -2.37508e-14 0)
(5.74747 -1.80131e-14 0)
(5.74747 -6.52146e-14 0)
(5.74747 -6.36877e-14 0)
(5.74747 -4.89551e-14 0)
(5.74747 -5.88068e-14 0)
(5.74747 -7.10989e-14 0)
(5.74747 -6.72549e-14 0)
(5.74747 -1.82798e-14 0)
(5.74747 2.18171e-14 0)
(5.74747 8.96988e-14 0)
(5.74747 1.02768e-13 0)
(5.74747 8.0784e-14 0)
(5.74747 7.1379e-15 0)
(5.74747 2.4881e-14 0)
(5.74747 -3.48994e-14 0)
(5.74747 -8.55281e-14 0)
(5.74747 -9.2646e-14 0)
(5.74747 -6.44378e-14 0)
(5.74747 -6.36177e-14 0)
(5.74747 -7.09423e-14 0)
(5.74747 -5.30425e-14 0)
(5.74747 -5.38671e-14 0)
(5.74747 9.03489e-16 0)
(5.74747 2.08836e-14 0)
(5.74747 4.39309e-14 0)
(5.74747 5.68031e-14 0)
(5.74747 6.28875e-14 0)
(5.74747 3.75065e-14 0)
(5.74747 -2.74747e-14 0)
(5.74747 -5.17089e-14 0)
(5.74747 2.35407e-14 0)
(5.74747 4.79249e-14 0)
(5.74747 2.3004e-14 0)
(5.74747 -4.37409e-15 0)
(5.74747 2.23039e-14 0)
(5.74747 4.49578e-14 0)
(5.74747 3.18455e-14 0)
(5.74747 3.40125e-14 0)
(5.74747 4.75982e-14 0)
(5.74747 5.72799e-14 0)
(5.74747 6.68049e-14 0)
(5.74747 2.19905e-14 0)
(5.74747 -4.18072e-15 0)
(5.74747 -1.7113e-14 0)
(5.74747 -1.26655e-14 0)
(5.74747 2.85616e-14 0)
(5.74747 5.53662e-14 0)
(5.74747 7.37394e-14 0)
(5.74747 8.69317e-14 0)
(5.74747 1.00584e-13 0)
(5.74747 8.17141e-14 0)
(5.74747 1.05918e-14 0)
(5.74747 -2.5151e-14 0)
(5.74747 -2.40041e-16 0)
(5.74747 2.17171e-14 0)
(5.74747 4.37075e-15 0)
(5.74747 -3.56828e-14 0)
(5.74747 -4.39609e-14 0)
(5.74747 -4.64847e-14 0)
(5.74747 -7.07489e-14 0)
(5.74747 -2.55144e-14 0)
(5.74747 5.94697e-15 0)
(5.74747 7.43462e-16 0)
(5.74747 7.87803e-15 0)
(5.74747 4.62447e-14 0)
(5.74747 5.5713e-14 0)
(5.74747 3.73531e-14 0)
(5.74747 1.00151e-14 0)
(5.74747 1.12586e-14 0)
(5.74747 1.71796e-14 0)
(5.74747 4.89318e-14 0)
(5.74747 6.68782e-15 0)
(5.74747 -2.95551e-14 0)
(5.74747 -6.7485e-14 0)
(5.74747 -5.30092e-14 0)
(5.74747 -3.76965e-14 0)
(5.74747 -7.76467e-15 0)
(5.74747 -7.56131e-15 0)
(5.74747 -1.41358e-15 0)
(5.74747 -2.12537e-14 0)
(5.74747 -1.67362e-15 0)
(5.74747 6.33443e-14 0)
(5.74747 9.38062e-14 0)
(5.74747 8.42979e-14 0)
(5.74747 4.57246e-14 0)
(5.74747 7.26359e-14 0)
(5.74747 1.24615e-13 0)
(5.74747 9.21492e-14 0)
(5.74747 9.25893e-14 0)
(5.74747 8.47613e-14 0)
(5.74747 2.44376e-15 0)
(5.74747 -1.17377e-13 0)
(5.74747 -1.07535e-13 0)
(5.74747 -8.84853e-14 0)
(5.74747 -6.04038e-14 0)
(5.74747 -5.79167e-14 0)
(5.74747 -6.1734e-14 0)
(5.74747 -4.24807e-14 0)
(5.74747 -3.42726e-15 0)
(5.74747 -1.65362e-14 0)
(5.74747 -8.96388e-14 0)
(5.74747 -2.79894e-14 0)
(5.74747 -1.91366e-15 0)
(5.74747 -2.17137e-14 0)
(5.74747 -4.92685e-14 0)
(5.74747 -6.44745e-14 0)
(5.74747 -6.5758e-14 0)
(5.74747 -6.16706e-14 0)
(5.74747 -2.2994e-14 0)
(5.74747 -8.60482e-15 0)
(5.74747 -5.0432e-14 0)
(5.74747 -7.57397e-14 0)
(5.74747 -6.71983e-14 0)
(5.74747 -5.08655e-14 0)
(5.74747 -4.37742e-14 0)
(5.74747 -4.82517e-14 0)
(5.74747 -6.47912e-14 0)
(5.74747 -4.66281e-14 0)
(5.74747 -3.05619e-14 0)
(5.74747 -5.94003e-14 0)
(5.74747 -7.12556e-14 0)
(5.74747 1.21921e-14 0)
(5.74747 1.7173e-13 0)
(5.74747 2.19788e-13 0)
(5.74747 1.75627e-13 0)
(5.74747 9.28294e-14 0)
(5.74747 1.21541e-13 0)
(5.74747 1.23691e-13 0)
(5.74747 1.02478e-13 0)
(5.74747 3.68964e-14 0)
(5.74747 -8.15841e-14 0)
(5.74747 -1.7459e-13 0)
(5.74747 -1.57404e-13 0)
(5.74747 -1.61725e-13 0)
(5.74747 -1.52106e-13 0)
(5.74747 -1.61668e-13 0)
(5.74747 -1.9153e-13 0)
(5.74747 -1.76564e-13 0)
(5.74747 -6.80818e-14 0)
(5.74747 -1.32856e-14 0)
(5.74747 -6.72149e-14 0)
(5.74747 -3.12279e-14 0)
(5.74747 -1.56694e-15 0)
(5.74747 -3.04419e-14 0)
(5.74747 -5.48761e-14 0)
(5.74747 -5.73632e-14 0)
(5.74747 -1.06885e-14 0)
(5.74747 3.96802e-14 0)
(5.74747 3.29257e-14 0)
(5.74747 1.5306e-14 0)
(5.74747 -2.13704e-15 0)
(5.74747 1.96867e-14 0)
(5.74747 6.79084e-14 0)
(5.74747 7.08122e-14 0)
(5.74747 3.19922e-14 0)
(5.74747 -5.00086e-15 0)
(5.74747 -1.14453e-14 0)
(5.74747 -1.52693e-14 0)
(5.74747 1.83132e-14 0)
(5.74747 4.01969e-14 0)
(5.74747 4.70748e-14 0)
(5.74747 6.63115e-14 0)
(5.74747 8.26209e-14 0)
(5.74747 8.80419e-14 0)
(5.74747 1.1803e-13 0)
(5.74747 9.91138e-14 0)
(5.74747 5.0382e-14 0)
(5.74747 5.15489e-14 0)
(5.74747 1.97601e-14 0)
(5.74747 -1.43758e-14 0)
(5.74747 -4.70381e-14 0)
(5.74747 -4.67814e-14 0)
(5.74747 -5.49962e-14 0)
(5.74747 -1.70443e-13 0)
(5.74747 -2.04025e-13 0)
(5.74747 -1.31299e-13 0)
(5.74747 -1.19801e-13 0)
(5.74747 -9.31561e-14 0)
(5.74747 -7.00421e-14 0)
(5.74747 -7.50596e-14 0)
(5.74747 -8.76951e-14 0)
(5.74747 -9.40675e-14 0)
(5.74747 1.37457e-14 0)
(5.74747 3.33258e-14 0)
(5.74747 3.52094e-14 0)
(5.74747 4.30808e-14 0)
(5.74747 5.25057e-14 0)
(5.74747 6.33876e-14 0)
(5.74747 4.47377e-14 0)
(5.74747 3.82599e-14 0)
(5.74747 1.25822e-13 0)
(5.74747 1.5632e-13 0)
(5.74747 1.44145e-13 0)
(5.74747 1.14443e-13 0)
(5.74747 5.02487e-14 0)
(5.74747 -7.76234e-14 0)
(5.74747 -1.00481e-13 0)
(5.74747 -9.57265e-14 0)
(5.74747 8.41812e-15 0)
(5.74747 7.94637e-14 0)
(5.74747 9.18559e-14 0)
(5.74747 9.02423e-14 0)
(5.74747 1.42825e-14 0)
(5.74747 -1.21554e-14 0)
(5.74747 -1.03818e-14 0)
(5.74747 -1.74563e-14 0)
(5.74747 -2.22438e-14 0)
(5.74747 -3.29857e-14 0)
(5.74747 -4.79316e-14 0)
(5.74747 -4.90185e-14 0)
(5.74747 -2.75581e-14 0)
(5.74747 -1.22554e-14 0)
(5.74747 -2.36207e-14 0)
(5.74747 -9.21993e-14 0)
(5.74747 -1.30359e-13 0)
(5.74747 -9.55932e-14 0)
(5.74747 -7.1159e-14 0)
(5.74747 -6.05338e-14 0)
(5.74747 -6.48879e-14 0)
(5.74747 -6.53613e-14 0)
(5.74747 -8.42879e-14 0)
(5.74747 -1.26022e-13 0)
(5.74747 4.75415e-15 0)
(5.74747 2.51343e-14 0)
(5.74747 3.16355e-14 0)
(5.74747 3.20722e-14 0)
(5.74747 -9.23493e-15 0)
(5.74747 -4.17372e-14 0)
(5.74747 -3.0672e-14 0)
(5.74747 2.2904e-15 0)
(5.74747 4.4161e-14 0)
(5.74747 4.71115e-14 0)
(5.74747 -4.48744e-15 0)
(5.74747 -3.05986e-14 0)
(5.74747 -5.73732e-14 0)
(5.74747 -9.54031e-14 0)
(5.74747 -7.95537e-14 0)
(5.74747 -6.69516e-14 0)
(5.74747 -1.16423e-13 0)
(5.74747 -1.05655e-13 0)
(5.74747 -9.4513e-14 0)
(5.74747 -9.43963e-14 0)
(5.74747 -5.50695e-14 0)
(5.74747 -6.65182e-14 0)
(5.74747 -7.4993e-14 0)
(5.74747 -1.73963e-14 0)
(5.74747 2.91417e-14 0)
(5.74747 2.57478e-14 0)
(5.74747 1.38524e-14 0)
(5.74747 9.68167e-15 0)
(5.74747 8.3281e-15 0)
(5.74747 2.75714e-14 0)
(5.74747 1.22188e-14 0)
(5.74747 -5.88768e-15 0)
(5.74747 7.58464e-15 0)
(5.74747 -1.06452e-14 0)
(5.74747 -3.18488e-14 0)
(5.74747 -5.2239e-14 0)
(5.74747 -5.17223e-14 0)
(5.74747 -2.40908e-14 0)
(5.74747 -4.75015e-14 0)
(5.74747 -6.81708e-14 0)
(5.74747 -7.09456e-15 0)
(5.74747 -1.919e-14 0)
(5.74747 -2.15137e-14 0)
(5.74747 -6.22841e-14 0)
(5.74747 -1.07225e-13 0)
(5.74747 -1.04588e-13 0)
(5.74747 -1.29956e-14 0)
(5.74747 8.80152e-16 0)
(5.74747 -5.0472e-14 0)
(5.74747 -1.29222e-13 0)
(5.74747 -1.42321e-13 0)
(5.74747 -1.27732e-13 0)
(5.74747 -1.49859e-14 0)
(5.74747 -1.60028e-15 0)
(5.74747 -5.00153e-14 0)
(5.74747 -1.25945e-13 0)
(5.74747 -1.82545e-13 0)
(5.74747 -2.32904e-13 0)
(5.74747 -2.58621e-13 0)
(5.74747 -1.70633e-13 0)
(5.74747 2.63345e-14 0)
(5.74747 6.5458e-14 0)
(5.74747 6.53546e-14 0)
(5.74747 5.00286e-14 0)
(5.74747 5.87868e-14 0)
(5.74747 1.01841e-13 0)
(5.74747 1.23841e-13 0)
(5.74747 1.06665e-13 0)
(5.74747 9.69334e-14 0)
(5.74747 5.95069e-14 0)
(5.74747 2.53644e-14 0)
(5.74747 2.35274e-14 0)
(5.74747 -1.04685e-15 0)
(5.74747 2.1437e-15 0)
(5.74747 1.50826e-14 0)
(5.74747 1.91933e-14 0)
(5.74747 -4.12405e-15 0)
(5.74747 -2.8725e-14 0)
(5.74747 -2.8715e-14 0)
(5.74747 -9.64783e-14 0)
(5.74747 -1.1812e-14 0)
(5.74747 1.70363e-15 0)
(5.74747 9.0449e-15 0)
(5.74747 -1.66929e-14 0)
(5.74747 -3.58929e-14 0)
(5.74747 -7.97804e-15 0)
(5.74747 1.30689e-15 0)
(5.74747 -4.16272e-14 0)
(5.74747 -8.57615e-14 0)
(5.74747 -1.30389e-13 0)
(5.74747 -8.76218e-14 0)
(5.74747 -2.53277e-14 0)
(5.74747 2.24439e-14 0)
(5.74747 1.68829e-14 0)
(5.74747 -1.50559e-14 0)
(5.74747 -2.43109e-14 0)
(5.74747 -2.64412e-14 0)
(5.74747 -3.01952e-14 0)
(5.74747 -7.02021e-14 0)
(5.74747 -8.16141e-14 0)
(5.74747 -8.73084e-14 0)
(5.74747 -5.00253e-14 0)
(5.74747 -2.99185e-14 0)
(5.74747 -7.21025e-14 0)
(5.74747 -7.95504e-14 0)
(5.74747 -7.53263e-14 0)
(5.74747 -6.46078e-14 0)
(5.74747 -4.90885e-14 0)
(5.74747 -1.19254e-14 0)
(5.74747 -2.3004e-15 0)
(5.74747 3.38825e-14 0)
(5.74747 6.17207e-14 0)
(5.74747 7.25592e-14 0)
(5.74747 1.61728e-14 0)
(5.74747 9.93172e-15 0)
(5.74747 -1.81198e-14 0)
(5.74747 -9.07323e-14 0)
(5.74747 -1.04591e-13 0)
(5.74747 -9.16925e-14 0)
(5.74747 7.92717e-14 0)
(5.74747 6.08438e-15 0)
(5.74747 2.28006e-14 0)
(5.74747 2.20738e-14 0)
(5.74747 4.09837e-14 0)
(5.74747 4.37409e-14 0)
(5.74747 4.30508e-14 0)
(5.74747 2.71614e-14 0)
(5.74747 2.55111e-14 0)
(5.74747 1.7303e-14 0)
(5.74747 6.11972e-14 0)
(5.74747 1.01598e-13 0)
(5.74747 1.50689e-13 0)
(5.74747 1.41521e-13 0)
(5.74747 1.06835e-13 0)
(5.74747 5.14589e-14 0)
(5.74747 2.98552e-14 0)
(5.74747 3.39359e-14 0)
(5.74747 6.88852e-14 0)
(5.74747 8.62416e-14 0)
(5.74747 4.36909e-14 0)
(5.74747 -3.79732e-15 0)
(5.74747 -7.23692e-14 0)
(5.74747 -8.60015e-14 0)
(5.74747 -6.26141e-14 0)
(5.74747 -9.75268e-14 0)
(5.74747 -1.32853e-13 0)
(5.74747 -1.34433e-13 0)
(5.74747 -1.49976e-13 0)
(5.74747 -1.55627e-13 0)
(5.74747 -1.3252e-13 0)
(5.74747 -1.15943e-13 0)
(5.74747 -9.06923e-14 0)
(5.74747 -8.74151e-15 0)
(5.74747 2.32273e-14 0)
(5.74747 1.41824e-14 0)
(5.74747 -1.67396e-14 0)
(5.74747 -6.06505e-14 0)
(5.74747 -4.97986e-14 0)
(5.74747 -2.57411e-14 0)
(5.74747 2.95218e-14 0)
(5.74747 1.07085e-14 0)
(5.74747 -3.49727e-15 0)
(5.74747 1.65595e-14 0)
(5.74747 2.92717e-14 0)
(5.74747 2.64379e-15 0)
(5.74747 2.40041e-15 0)
(5.74747 1.12786e-14 0)
(5.74747 4.18006e-14 0)
(5.74747 3.37225e-14 0)
(5.74747 4.39176e-14 0)
(5.74747 5.90702e-14 0)
(5.74747 1.01358e-13 0)
(5.74747 1.1761e-13 0)
(5.74747 1.38964e-13 0)
(5.74747 6.30276e-14 0)
(5.74747 2.17404e-14 0)
(5.74747 -1.02184e-14 0)
(5.74747 -3.22122e-14 0)
(5.74747 4.9952e-14 0)
(5.74747 5.70999e-14 0)
(5.74747 -9.00155e-15 0)
(5.74747 -2.74681e-14 0)
(5.74747 -7.24992e-14 0)
(5.74747 -9.19859e-14 0)
(5.74747 -1.11336e-13 0)
(5.74747 -1.21931e-13 0)
(5.74747 -1.00571e-13 0)
(5.74747 -1.23038e-13 0)
(5.74747 -1.37664e-13 0)
(5.74747 -1.79118e-13 0)
(5.74747 -2.08566e-13 0)
(5.74747 -2.27943e-13 0)