/*--------------------------------*- C++ -*----------------------------------*\
| =========                 |                                                 |
| \\      /  F ield         | OpenFOAM: The Open Source CFD Toolbox           |
|  \\    /   O peration     | Version:  2206                                  |
|   \\  /    A nd           | Website:  www.openfoam.com                      |
|    \\/     M anipulation  |                                                 |
\*---------------------------------------------------------------------------*/
FoamFile
{
    version     2.0;
    format      ascii;
    arch        "LSB;label=32;scalar=64";
    class       volScalarField;
    location    "0.1";
    object      T;
}
// * * * * * * * * * * * * * * * * * * * * * * * * * * * * * * * * * * * * * //

dimensions      [0 0 0 1 0 0 0];

internalField   nonuniform List<scalar> 
4800
(
1
1
1
1
1
1
1
1
1
1
1
1
1
1
1
1
1
1
1
1
1
1
1
1
1
1
1
1
1
1
1
1
1
1
1
1
1
1
1
1
1
1
1
1
1
1
1
1
1
1
1
1
1
1
1
1
1
1
1
1
1
1
1
1
1
1
1
1
1
1
1
1
1
1
1
1
1
1
1
1
1
1
1
1
1
1
1
1
1
1
1
1
1
1
1
1
1
1
1
1
1
1
1
1
1
1
1
1
1
1
1
1
1
1
1
1
1
1
1
1
1
1
1
1
1
1
1
1
1
1
1
1
1
1
1
1
1
1
1
1
1
1
1
1
1
1
1
1
1
1
1
1
1
1
1
1
1
1
1
1
1
1
1
1
1
1
1
1
1
1
1
1
1
1
1
1
1
1
1
1
1
1
1
1
1
1
1
1
1
1
1
1
1
1
1
1
1
1
1
1
1
1
1
1
1
1
1
1
1
1
1
1
1
1
1
1
1
1
1
1
1
1
1
1
1
1
1
1
1
1
1
1
1
1
1
1
1
1
1
1
1
1
1
1
1
1
1
1
1
1
1
1
1
1
1
1
1
1
1
1
1
1
1
1
1
1
1
1
1
1
1
1
1
1
1
1
1
1
1
1
1
1
1
1
1
1
1
1
1
1
1
1
1
1
1
1
1
1
1
1
1
1
1
1
1
1
1
1
1
1
1
1
1
1
1
1
1
1
1
1
1
1
1
1
1
1
1
1
1
1
1
1
1
1
1
1
1
1
1
1
1
1
1
1
1
1
1
1
1
1
1
1
1
1
1
1
1
1
1
1
1
1
1
1
1
1
1
1
1
1
1
1
1
1
1
1
1
1
1
1
1
1
1
1
1
1
1
1
1
1
1
1
1
1
1
1
1
1
1
1
1
1
1
1
1
1
1
1
1
1
1
1
1
1
1
1
1
1
1
1
1
1
1
1
1
1
1
1
1
1
1
1
1
1
1
1
1
1
1
1
1
1
1
1
1
1
1
1
1
1
1
1
1
1
1
1
1
1
1
1
1
1
1
1
1
1
1
1
1
1
1
1
1
1
1
1
1
1
1
1
1
1
1
1
1
1
1
1
1
1
1
1
1
1
1
1
1
1
1
1
1
1
1
1
1
1
1
1
1
1
1
1
1
1
1
1
1
1
1
1
1
1
1
1
1
1
1
1
1
1
1
1
1
1
1
1
1
1
1
1
1
1
1
1
1
1
1
1
1
1
1
1
1
1
1
1
1
1
1
1
1
1
1
1
1
1
1
1
1
1
1
1
1
1
1
1
1
1
1
1
1
1
1
1
1
1
1
1
1
1
1
1
1
1
1
1
1
1
1
1
1
1
1
1
1
1
1
1
1
1
1
1
1
1
1
1
1
1
1
1
1
1
1
1
1
1
1
1
1
1
1
1
1
1
1
1
1
1
1
1
1
1
1
1
1
1
1
1
1
1
1
1
1
1
1
1
1
1
1
1
1
1
1
1
1
1
1
1
1
1
1
1
1
1
1
1
1
1
1
1
1
1
1
1
1
1
1
1
1
1
1
1
1
1
1
1
1
1
1
1
1
1
1
1
1
1
1
1
1
1
1
1
1
1
1
1
1
1
1
1
1
1
1
1
1
1
1
1
1
1
1
1
1
1
1
1
1
1
1
1
1
1
1
1
1
1
1
1
1
1
1
1
1
1
1
1
1
1
1
1
1
1
1
1
1
1
1
1
1
1
1
1
1
1
1
1
1
1
1
1
1
1
1
1
1
1
1
1
1
1
1
1
1
1
1
1
1
1
1
1
1
1
1
1
1
1
1
1
1
1
1
1
1
1
1
1
1
1
1
1
1
1
1
1
1
1
1
1
1
1
1
1
1
1
1
1
1
1
1
1
1
1
1
1
1
1
1
1
1
1
1
1
1
1
1
1
1
1
1
1
1
1
1
1
1
1
1
1
1
1
1
1
1
1
1
1
1
1
1
1
1
1
1
1
1
1
1
1
1
1
1
1
1
1
1
1
1
1
1
1
1
1
1
1
1
1
1
1
1
1
1
1
1
1
1
1
1
1
1
1
1
1
1
1
1
1
1
1
1
1
1
1
1
1
1
1
1
1
1
1
1
1
1
1
1
1
1
1
1
1
1
1
1
1
1
1
1
1
1
1
1
1
1
1
1
1
1
1
1
1
1
1
1
1
1
1
1
1
1
1
1
1
1
1
1
1
1
1
1
1
1
1
1
1
1
1
1
1
1
1
1
1
1
1
1
1
1
1
1
1
1
1
1
1
1
1
1
1
1
1
1
1
1
1
1
1
1
1
1
1
1
1
1
1
1
1
1
1
1
1
1
1
1
1
1
1
1
1
1
1
1
1
1
1
1
1
1
1
1
1
1
1
1
1
1
1
1
1
1
1
1
1
1
1
1
1
1
1
1
1
1
1
1
1
1
1
1
1
1
1
1
1
1
1
1
1
1
1
1
1
1
1
1
1
1
1
1
1
1
1
1
1
1
1
1
1
1
1
1
1
1
1
1
1
1
1
1
1
1
1
1
1
1
1
1
1
1
1
1
1
1
1
1
1
1
1
1
1
1
1
1
1
1
1
1
1
1
1
1
1
1
1
1
1
1
1
1
1
1
1
1
1
1
1
1
1
1
1
1
1
1
1
1
1
1
1
1
1
1
1
1
1
1
1
1
1
1
1
1
1
1
1
1
1
1
1
1
1
1
1
1
1
1
1
1
1
1
1
1
1
1
1
1
1
1
1
1
1
1
1
1
1
1
1
1
1
1
1
1
1
1
1
1
1
1
1
1
1
1
1
1
1
1
1
1
1
1
1
1
1
1
1
1
1
1
1
1
1
1
1
1
1
1
1
1
1
1
1
1
1
1
1
1
1
1
1
1
1
1
1
1
1
1
1
1
1
1
1
1
1
1
1
1
1
1
1
1
1
1
1
1
1
1
1
1
1
1
1
1
1
1
1
1
1
1
1
1
1
1
1
1
1
1
1
1
1
1
1
1
1
1
1
1
1
1
1
1
1
1
1
1
1
1
1
1
1
1
1
1
1
1
1
1
1
1
1
1
1
1
1
1
1
1
1
1
1
1
1
1
1
1
1
1
1
1
1
1
1
1
1
1
1
1
1
1
1
1
1
1
1
1
1
1
1
1
1
1
1
1
1
1
1
1
1
1
1
1
1
1
1
1
1
1
1
1
1
1
1
1
1
1
1
1
1
1
1
1
1
1
1
1
1
1
1
1
1
1
1
1
1
1
1
1
1
1
1
1
1
1
1
1
1
1
1
1
1
1
1
1
1
1
1
1
1
1
1
1
1
1
1
1
1
1
1
1
1
1
1
1
1
1
1
1
1
1
1
1
1
1
1
1
1
1
1
1
1
1
1
1
1
1
1
1
1
1
1
1
1
1
1
1
1
1
1
1
1
1
1
1
1
1
1
1
1
1
1
1
1
1
1
1
1
1
1
1
1
1
1
1
1
1
1
1
1
1
1
1
1
1
1
1
1
1
1
1
1
1
1
1
1
1
1
1
1
1
1
1
1
1
1
1
1
1
1
1
1
1
1
1
1
1
1
1
1
1
1
1
1
1
1
1.07041
1.16382
1.26276
1.35434
1.43647
1.53686
1.64373
1.70741
1.75407
1.82175
1.90929
1.93653
1.93313
1.94524
1.94896
1.94024
1.91381
1.8714
1.81988
1.77254
1.74997
1.73929
1.72897
1.71526
1.70971
1.7101
1.71373
1.72271
1.73433
1.74473
1.75269
1.75872
1.75957
1.75838
1.75595
1.75648
1.7592
1.76135
1.76208
1.76238
1.76444
1.76871
1.771
1.77168
1.77152
1.77054
1.7692
1.76778
1.76647
1.76525
1.76389
1.76356
1.76466
1.76916
1.7745
1.77758
1.77817
1.77769
1.77585
1.77265
1.76818
1.76506
1.76389
1.76382
1.76513
1.76873
1.77325
1.77655
1.77825
1.77915
1.77969
1.77977
1.77913
1.77782
1.77572
1.7737
1.77207
1.77082
1.76981
1.77051
1
0.999952
0.999521
1.00925
1.03268
1.04697
1.09972
1.20733
1.28347
1.3385
1.42133
1.51879
1.56675
1.59769
1.65948
1.6899
1.70687
1.73465
1.76328
1.78801
1.79973
1.79686
1.79719
1.79669
1.79046
1.77681
1.76293
1.75939
1.75612
1.75264
1.75087
1.75202
1.75599
1.75857
1.76069
1.7644
1.76771
1.76828
1.76859
1.76853
1.76842
1.76884
1.76958
1.77039
1.77162
1.77364
1.77429
1.77435
1.77436
1.77399
1.77271
1.7708
1.77032
1.77096
1.77195
1.77371
1.77568
1.77679
1.77693
1.7762
1.77543
1.77497
1.77447
1.77438
1.77486
1.77545
1.77545
1.775
1.77442
1.77437
1.77523
1.77709
1.77893
1.77934
1.77923
1.77931
1.77923
1.77875
1.77771
1.77705
1
1
1
1
1
1
1
1
0.999946
1.0002
1.00707
1.04323
1.12015
1.19755
1.32828
1.48728
1.61169
1.7552
1.81848
1.85635
1.88325
1.87917
1.87148
1.86482
1.8563
1.84234
1.81496
1.79265
1.77891
1.76976
1.76856
1.77016
1.77319
1.77571
1.77985
1.7843
1.78658
1.78632
1.78587
1.78583
1.78565
1.78381
1.78217
1.78133
1.78134
1.78292
1.78696
1.78996
1.79044
1.78976
1.78762
1.78532
1.78329
1.78155
1.78092
1.78036
1.77974
1.78004
1.78211
1.78492
1.78713
1.78808
1.78824
1.78829
1.78802
1.78708
1.78522
1.78238
1.77907
1.77692
1.77628
1.77645
1.77901
1.78416
1.78756
1.78843
1.78863
1.7883
1.78728
1.78578
1
1
1
1
1
1
1
1
1
1
1
1
1
0.999831
0.99971
1.0215
1.09143
1.2374
1.4569
1.60986
1.744
1.7888
1.81673
1.84554
1.84224
1.83829
1.84606
1.84739
1.84173
1.82892
1.82273
1.81857
1.81321
1.80534
1.80055
1.79768
1.79643
1.79767
1.80031
1.8034
1.80536
1.8053
1.80326
1.79975
1.79779
1.79755
1.79953
1.80451
1.8073
1.80801
1.80777
1.80625
1.80301
1.80002
1.79791
1.79558
1.7931
1.7915
1.79154
1.79283
1.7958
1.79966
1.80278
1.80383
1.80328
1.80129
1.79796
1.79271
1.78753
1.78513
1.78495
1.78553
1.787
1.78947
1.79261
1.7949
1.79631
1.79678
1.79667
1.79465
1
1
1
1
1
1
1
1
1
1
1
1
1
1
1
1
1
0.999591
1.00702
1.04641
1.15524
1.36454
1.51589
1.65355
1.74266
1.80916
1.8817
1.88715
1.88338
1.87827
1.87159
1.86325
1.8509
1.82949
1.81369
1.81035
1.81128
1.81451
1.81857
1.82083
1.82151
1.82117
1.81864
1.81336
1.81173
1.81248
1.81453
1.81686
1.81852
1.82053
1.82192
1.8219
1.82042
1.81721
1.81422
1.8118
1.80936
1.80679
1.80516
1.80521
1.80625
1.80783
1.81015
1.81294
1.81434
1.81405
1.81136
1.8073
1.80431
1.80156
1.80061
1.80059
1.80085
1.8012
1.80151
1.80206
1.80253
1.80247
1.80224
1.80125
1
1
1
1
1
1
1
1
1
1
1
1
1
1
1
1
1
1
1
1
0.999755
1.00141
1.01571
1.08276
1.27009
1.42785
1.58621
1.68723
1.76528
1.83644
1.84442
1.84405
1.84386
1.83555
1.82683
1.82613
1.8275
1.83054
1.8327
1.8342
1.83254
1.82874
1.82336
1.81847
1.81705
1.81794
1.82145
1.82414
1.82514
1.82549
1.82613
1.8268
1.82713
1.82766
1.8281
1.82762
1.8262
1.82393
1.82061
1.8189
1.8186
1.81778
1.81693
1.81687
1.81759
1.81912
1.82024
1.82046
1.81985
1.81787
1.81767
1.81784
1.81737
1.81563
1.81391
1.81253
1.81127
1.8096
1.80737
1.80573
1
1
1
1
1
1
1
1
1
1
1
1
1
1
1
1
1
1
1
1
1
1
1
1
0.999553
1.00453
1.04595
1.19462
1.34752
1.51807
1.63809
1.74661
1.82638
1.83315
1.83944
1.84427
1.84257
1.83844
1.83304
1.82723
1.82294
1.82151
1.82015
1.82109
1.82378
1.8253
1.82421
1.82335
1.82331
1.82314
1.8224
1.8227
1.8235
1.82707
1.83284
1.83491
1.83509
1.8351
1.83451
1.83064
1.8246
1.82056
1.81877
1.81842
1.81861
1.8201
1.82304
1.82559
1.82715
1.82809
1.82851
1.82882
1.82875
1.82695
1.82275
1.81875
1.81625
1.81472
1.81289
1.81194
1
1
1
1
1
1
1
1
1
1
1
1
1
1
1
1
1
1
1
1
1
1
1
1
1
1
1
0.999676
1.00139
1.03249
1.14769
1.27853
1.46006
1.59378
1.71727
1.78275
1.79479
1.80383
1.79761
1.80293
1.81246
1.81849
1.82388
1.82776
1.8289
1.8289
1.82673
1.82561
1.8242
1.81917
1.81494
1.81469
1.81614
1.81999
1.82674
1.83285
1.83489
1.83562
1.83593
1.83585
1.83328
1.82824
1.82352
1.82124
1.82143
1.82293
1.82356
1.82377
1.82536
1.82827
1.83107
1.8324
1.83216
1.83011
1.82763
1.82587
1.82367
1.82179
1.82
1.81906
1
1
1
1
1
1
1
1
1
1
1
1
1
1
1
1
1
1
1
1
1
1
1
1
1
1
1
1
1
1
0.99988
1.0001
1.02112
1.10793
1.2406
1.42627
1.57692
1.70367
1.75308
1.77839
1.798
1.80664
1.81287
1.81941
1.8218
1.82158
1.81999
1.81847
1.81871
1.8178
1.81274
1.80809
1.80831
1.8108
1.81539
1.82061
1.82447
1.82736
1.82968
1.83082
1.83069
1.83036
1.83026
1.8289
1.82727
1.82601
1.8244
1.82339
1.82356
1.82455
1.82566
1.82686
1.82764
1.82761
1.82777
1.82813
1.82832
1.82846
1.82782
1.82625
1
1
1
1
1
1
1
1
1
1
1
1
1
1
1
1
1
1
1
1
1
1
1
1
1
1
1
1
1
1
1
1
1
0.999886
0.999986
1.02147
1.09806
1.21556
1.40286
1.54761
1.68008
1.72154
1.744
1.76645
1.77852
1.78907
1.79867
1.80775
1.81769
1.81866
1.81589
1.811
1.8093
1.80891
1.80763
1.80805
1.8095
1.81045
1.81202
1.81518
1.82059
1.82487
1.82603
1.82744
1.83044
1.831
1.82968
1.82482
1.81969
1.81872
1.81933
1.8208
1.82183
1.82225
1.82286
1.8248
1.82884
1.83064
1.83066
1.83018
1
1
1
1
1
1
1
1
1
1
1
1
1
1
1
1
1
1
1
1
1
1
1
1
1
1
1
1
1
1
1
1
1
1
1
1
0.999896
1.00003
1.01752
1.07466
1.20793
1.40368
1.55134
1.6598
1.7102
1.74827
1.76946
1.78687
1.80318
1.80779
1.8073
1.80643
1.80749
1.80987
1.81011
1.80754
1.80165
1.79747
1.7978
1.80009
1.80349
1.80836
1.81437
1.82126
1.82517
1.82622
1.82587
1.82366
1.82084
1.81784
1.81706
1.81681
1.81667
1.81722
1.81873
1.82143
1.82397
1.8268
1.82828
1.82871
1
1
1
1
1
1
1
1
1
1
1
1
1
1
1
1
1
1
1
1
1
1
1
1
1
1
1
1
1
1
1
1
1
1
1
1
1
1
1
0.99988
1.00043
1.02429
1.08208
1.21615
1.42208
1.59032
1.66925
1.69733
1.72902
1.75919
1.7805
1.79276
1.79958
1.80528
1.80792
1.8069
1.80365
1.79786
1.79368
1.79277
1.79342
1.79624
1.79979
1.8035
1.80785
1.81228
1.8149
1.81477
1.81478
1.81659
1.81918
1.81935
1.81814
1.81565
1.81483
1.8158
1.81836
1.82015
1.82105
1.82259
1
1
1
1
1
1
1
1
1
1
1
1
1
1
1
1
1
1
1
1
1
1
1
1
1
1
1
1
1
1
1
1
1
1
1
1
1
1
1
1
0.999998
1.00001
0.999903
1.00141
1.03138
1.10902
1.276
1.45037
1.58197
1.66109
1.71281
1.74032
1.75815
1.78252
1.79647
1.79782
1.79766
1.79618
1.79758
1.80086
1.79955
1.79562
1.79293
1.79208
1.79261
1.79455
1.79591
1.79772
1.80196
1.80834
1.81265
1.81468
1.81546
1.81562
1.81516
1.81464
1.81448
1.81389
1.81355
1.81494
1
1
1
1
1
1
1
1
1
1
1
1
1
1
1
1
1
1
1
1
1
1
1
1
1
1
1
1
1
1
1
1
1
1
1
1
1
1
1
1
1
1
0.999999
0.999996
1.00002
0.999978
1.00554
1.03877
1.12637
1.32631
1.5438
1.66656
1.69092
1.71806
1.74965
1.76603
1.77394
1.78394
1.79258
1.79904
1.79947
1.79763
1.79601
1.79364
1.79013
1.78744
1.78651
1.78708
1.78888
1.7941
1.80181
1.80764
1.80938
1.80971
1.81025
1.81206
1.81319
1.81247
1.8095
1.80848
1
1
1
1
1
1
1
1
1
1
1
1
1
1
1
1
1
1
1
1
1
1
1
1
1
1
1
1
1
1
1
1
1
1
1
1
1
1
1
1
1
1
1
1
1
0.999999
1
0.999968
1.00028
1.01638
1.08675
1.26024
1.44126
1.56997
1.67052
1.71762
1.7313
1.74322
1.76321
1.78543
1.79154
1.7915
1.79265
1.79465
1.79808
1.79761
1.79199
1.78573
1.78344
1.78589
1.79067
1.79299
1.79416
1.79591
1.79955
1.80419
1.80637
1.80598
1.80593
1.80685
1
1
1
1
1
1
1
1
1
1
1
1
1
1
1
1
1
1
1
1
1
1
1
1
1
1
1
1
1
1
1
1
1
1
1
1
1
1
1
1
1
1
1
1
1
1
1
0.999999
0.999999
0.999999
1.00006
1.00517
1.04341
1.12643
1.31856
1.56045
1.71124
1.71812
1.72727
1.74794
1.76357
1.7624
1.76816
1.78353
1.79368
1.79417
1.79
1.78746
1.78846
1.79037
1.79027
1.78804
1.7858
1.78597
1.78765
1.79188
1.79649
1.79891
1.79994
1.80115
1
1
1
1
1
1
1
1
1
1
1
1
1
1
1
1
1
1
1
1
1
1
1
1
1
1
1
1
1
1
1
1
1
1
1
1
1
1
1
1
1
1
1
1
1
1
1
1
1
1
1
1
0.999993
1.00057
1.0167
1.11004
1.34489
1.52766
1.64437
1.72287
1.74965
1.74852
1.74645
1.75593
1.77126
1.78065
1.78238
1.78364
1.78848
1.79489
1.79745
1.79652
1.79091
1.78402
1.78285
1.78455
1.78772
1.78902
1.79007
1.79317
1
1
1
1
1
1
1
1
1
1
1
1
1
1
1
1
1
1
1
1
1
1
1
1
1
1
1
1
1
1
1
1
1
1
1
1
1
1
1
1
1
1
1
1
1
1
1
1
1
1
1
1
1
1
0.999985
1.00048
1.01875
1.10933
1.24117
1.43709
1.64776
1.75968
1.75842
1.76074
1.76172
1.76427
1.76219
1.76037
1.77043
1.78769
1.79545
1.79301
1.78719
1.78507
1.78619
1.78763
1.78724
1.78505
1.78466
1.78734
1
1
1
1
1
1
1
1
1
1
1
1
1
1
1
1
1
1
1
1
1
1
1
1
1
1
1
1
1
1
1
1
1
1
1
1
1
1
1
1
1
1
1
1
1
1
1
1
1
1
1
1
1
1
0.999999
0.999999
0.999999
1.0004
1.00574
1.05267
1.22884
1.50368
1.66303
1.72415
1.76247
1.77087
1.77014
1.76195
1.76472
1.77384
1.77937
1.77884
1.77738
1.78067
1.78599
1.79108
1.79172
1.79021
1.78877
1.78826
1
1
1
1
1
1
1
1
1
1
1
1
1
1
1
1
1
1
1
1
1
1
1
1
1
1
1
1
1
1
1
1
1
1
1
1
1
1
1
1
1
1
1
1
1
1
1
1
1
1
1
1
1
1
1
1
1
1
0.999992
1.0001
1.00599
1.10017
1.28484
1.4434
1.61514
1.74963
1.78211
1.78064
1.79125
1.78836
1.77625
1.76765
1.76219
1.76351
1.77354
1.78559
1.78969
1.78843
1.78648
1.78655
1
1
1
1
1
1
1
1
1
1
1
1
1
1
1
1
1
1
1
1
1
1
1
1
1
1
1
1
1
1
1
1
1
1
1
1
1
1
1
1
1
1
1
1
1
1
1
1
1
1
1
1
1
1
1
1
1
1
0.999999
0.999999
0.999991
1.0007
1.00925
1.07731
1.22673
1.48929
1.66633
1.75172
1.78579
1.78577
1.78274
1.77934
1.77316
1.77211
1.77694
1.7802
1.78104
1.7803
1.77995
1.78372
1
1
1
1
1
1
1
1
1
1
1
1
1
1
1
1
1
1
1
1
1
1
1
1
1
1
1
1
1
1
1
1
1
1
1
1
1
1
1
1
1
1
1
1
1
1
1
1
1
1
1
1
1
1
1
1
1
1
1
1
0.999999
1
0.999992
1.00044
1.00578
1.09826
1.36796
1.55881
1.65787
1.74309
1.77652
1.78575
1.78878
1.79525
1.7974
1.79161
1.78171
1.77512
1.77451
1.77854
1
1
1
1
1
1
1
1
1
1
1
1
1
1
1
1
1
1
1
1
1
1
1
1
1
1
1
1
1
1
1
1
1
1
1
1
1
1
1
1
1
1
1
1
1
1
1
1
1
1
1
1
1
1
1
1
1
1
1
1
1
1
0.999999
0.999999
0.999995
1.00139
1.02804
1.17649
1.36261
1.56038
1.68689
1.73754
1.77262
1.79139
1.79315
1.79152
1.78582
1.78115
1.78053
1.78212
1
1
1
1
1
1
1
1
1
1
1
1
1
1
1
1
1
1
1
1
1
1
1
1
1
1
1
1
1
1
1
1
1
1
1
1
1
1
1
1
1
1
1
1
1
1
1
1
1
1
1
1
1
1
1
1
1
1
1
1
1
1
1
1
1
0.999997
1.00006
1.00404
1.03056
1.17724
1.46268
1.66508
1.72026
1.75179
1.777
1.78282
1.77981
1.77783
1.78014
1.78836
1
1
1
1
1
1
1
1
1
1
1
1
1
1
1
1
1
1
1
1
1
1
1
1
1
1
1
1
1
1
1
1
1
1
1
1
1
1
1
1
1
1
1
1
1
1
1
1
1
1
1
1
1
1
1
1
1
1
1
1
1
1
1
1
1
1
1
0.999997
1.00008
1.00608
1.07304
1.34728
1.58222
1.70809
1.75903
1.76605
1.76903
1.77189
1.77127
1.77521
1
1
1
1
1
1
1
1
1
1
1
1
1
1
1
1
1
1
1
1
1
1
1
1
1
1
1
1
1
1
1
1
1
1
1
1
1
1
1
1
1
1
1
1
1
1
1
1
1
1
1
1
1
1
1
1
1
1
1
1
1
1
1
1
1
1
1
1
0.999999
1
1.00097
1.03932
1.1974
1.42705
1.62935
1.74632
1.79108
1.79746
1.78965
1.77101
1
1
1
1
1
1
1
1
1
1
1
1
1
1
1
1
1
1
1
1
1
1
1
1
1
1
1
1
1
1
1
1
1
1
1
1
1
1
1
1
1
1
1
1
1
1
1
1
1
1
1
1
1
1
1
1
1
1
1
1
1
1
1
1
1
1
1
1
1
1
0.999999
1.0003
1.00614
1.07751
1.2816
1.53216
1.72884
1.80013
1.79886
1.78696
1
1
1
1
1
1
1
1
1
1
1
1
1
1
1
1
1
1
1
1
1
1
1
1
1
1
1
1
1
1
1
1
1
1
1
1
1
1
1
1
1
1
1
1
1
1
1
1
1
1
1
1
1
1
1
1
1
1
1
1
1
1
1
1
1
1
1
1
1
1
1
0.999999
1
1.00097
1.02055
1.18989
1.47479
1.69508
1.7916
1.78377
1
1
1
1
1
1
1
1
1
1
1
1
1
1
1
1
1
1
1
1
1
1
1
1
1
1
1
1
1
1
1
1
1
1
1
1
1
1
1
1
1
1
1
1
1
1
1
1
1
1
1
1
1
1
1
1
1
1
1
1
1
1
1
1
1
1
1
1
1
1
1
1
1
0.999999
1.00015
1.00927
1.12385
1.38535
1.64205
1.7624
1
1
1
1
1
1
1
1
1
1
1
1
1
1
1
1
1
1
1
1
1
1
1
1
1
1
1
1
1
1
1
1
1
1
1
1
1
1
1
1
1
1
1
1
1
1
1
1
1
1
1
1
1
1
1
1
1
1
1
1
1
1
1
1
1
1
1
1
1
1
1
1
1
1
1
1.00004
1.0033
1.06569
1.28026
1.66071
1
1
1
1
1
1
1
1
1
1
1
1
1
1
1
1
1
1
1
1
1
1
1
1
1
1
1
1
1
1
1
1
1
1
1
1
1
1
1
1
1
1
1
1
1
1
1
1
1
1
1
1
1
1
1
1
1
1
1
1
1
1
1
1
1
1
1
1
1
1
1
1
1
1
1
1
1
1.00138
1.02457
1.44428
1
1
1
1
1
1
1
1
1
1
1
1
1
1
1
1
1
1
1
1
1
1
1
1
1
1
1
1
1
1
1
1
1
1
1
1
1
1
1
1
1
1
1
1
1
1
1
1
1
1
1
1
1
1
1
1
1
1
1
1
1
1
1
1
1
1
1
1
1
1
1
1
1
1
1
1
1
1
1.00045
1.12481
1
1
1
1
1
1
1
1
1
1
1
1
1
1
1
1
1
1
1
1
1
1
1
1
1
1
1
1
1
1
1
1
1
1
1
1
1
1
1
1
1
1
1
1
1
1
1
1
1
1
1
1
1
1
1
1
1
1
1
1
1
1
1
1
1
1
1
1
1
1
1
1
1
1
1
1
1
1
1
1.01029
1
1
1
1
1
1
1
1
1
1
1
1
1
1
1
1
1
1
1
1
1
1
1
1
1
1
1
1
1
1
1
1
1
1
1
1
1
1
1
1
1
1
1
1
1
1
1
1
1
1
1
1
1
1
1
1
1
1
1
1
1
1
1
1
1
1
1
1
1
1
1
1
1
1
1
1
1
1
1
1.00038
1
1
1
1
1
1
1
1
1
1
1
1
1
1
1
1
1
1
1
1
1
1
1
1
1
1
1
1
1
1
1
1
1
1
1
1
1
1
1
1
1
1
1
1
1
1
1
1
1
1
1
1
1
1
1
1
1
1
1
1
1
1
1
1
1
1
1
1
1
1
1
1
1
1
1
1
1
1
1
1.00001
1
1
1
1
1
1
1
1
1
1
1
1
1
1
1
1
1
1
1
1
1
1
1
1
1
1
1
1
1
1
1
1
1
1
1
1
1
1
1
1
1
1
1
1
1
1
1
1
1
1
1
1
1
1
1
1
1
1
1
1
1
1
1
1
1
1
1
1
1
1
1
1
1
1
1
1
1
1
1
1
1
1
1
1
1
1
1
1
1
1
1
1
1
1
1
1
1
1
1
1
1
1
1
1
1
1
1
1
1
1
1
1
1
1
1
1
1
1
1
1
1
1
1
1
1
1
1
1
1
1
1
1
1
1
1
1
1
1
1
1
1
1
1
1
1
1
1
1
1
1
1
1
1
1
1
1
1
1
1
1
1
1
1
1
1
1
1
1
1
1
1
1
1
1
1
1
1
1
1
1
1
1
1
1
1
1
1
1
1
1
1
1
1
1
1
1
1
1
1
1
1
1
1
1
1
1
1
1
1
1
1
1
1
1
1
1
1
1
1
1
1
1
1
1
1
1
1
1
1
1
1
1
1
1
1
1
1
1
1
1
1
1
1
1
1
1
1
1
1
1
1
1
1
1
1
1
1
1
1
1
1
1
1
1
1
1
1
1
1
1
1
1
1
1
1
1
1
1
1
1
1
1
1
1
1
1
1
1
1
1
1
1
1
1
1
1
1
1
1
1
1
1
1
1
1
1
1
1
1
1
1
1
1
1
1
1
1
1
1
1
1
1
1
1
1
1
1
1
1
1
1
1
1
1
1
1
1
1
1
1
1
1
1
1
1
1
1
1
1
1
1
1
1
1
1
1
1
1
1
1
1
1
1
1
1
1
1
1
1
1
1
1
1
1
1
1
1
1
1
1
1
1
1
1
1
1
1
1
1
1
1
1
1
1
1
1
1
1
1
1
)
;

boundaryField
{
    inlet
    {
        type            fixedValue;
        value           uniform 1;
    }
    outlet
    {
        type            zeroGradient;
    }
    bottom
    {
        type            symmetryPlane;
    }
    top
    {
        type            symmetryPlane;
    }
    obstacle
    {
        type            zeroGradient;
    }
    defaultFaces
    {
        type            empty;
    }
}


// ************************************************************************* //
