/*--------------------------------*- C++ -*----------------------------------*\
| =========                 |                                                 |
| \\      /  F ield         | OpenFOAM: The Open Source CFD Toolbox           |
|  \\    /   O peration     | Version:  2206                                  |
|   \\  /    A nd           | Website:  www.openfoam.com                      |
|    \\/     M anipulation  |                                                 |
\*---------------------------------------------------------------------------*/
FoamFile
{
    version     2.0;
    format      ascii;
    arch        "LSB;label=32;scalar=64";
    class       volVectorField;
    location    "0.1";
    object      U;
}
// * * * * * * * * * * * * * * * * * * * * * * * * * * * * * * * * * * * * * //

dimensions      [0 1 -1 0 0 0 0];

internalField   nonuniform List<vector> 
4800
(
(5.26263 7.68466e-15 0)
(5.26263 2.34307e-14 0)
(5.26263 4.71715e-14 0)
(5.26263 4.51845e-14 0)
(5.26263 4.46911e-14 0)
(5.26263 4.20439e-14 0)
(5.26263 4.6518e-14 0)
(5.26263 6.3821e-14 0)
(5.26263 7.43328e-14 0)
(5.26263 8.74051e-14 0)
(5.26263 8.78818e-14 0)
(5.26263 7.40495e-14 0)
(5.26263 1.01461e-13 0)
(5.26263 1.02291e-13 0)
(5.26263 1.46972e-13 0)
(5.26263 1.44188e-13 0)
(5.26263 6.30676e-14 0)
(5.26263 -4.51211e-14 0)
(5.26263 -6.10105e-14 0)
(5.26263 -5.5873e-14 0)
(5.26263 -3.41392e-15 0)
(5.26263 1.89766e-14 0)
(5.26263 2.3194e-14 0)
(5.26263 5.60563e-14 0)
(5.26263 2.18671e-14 0)
(5.26263 1.28789e-14 0)
(5.26263 -4.90085e-16 0)
(5.26263 3.11054e-15 0)
(5.26263 1.08619e-14 0)
(5.26263 2.35474e-14 0)
(5.26263 3.59929e-14 0)
(5.26263 4.0747e-14 0)
(5.26263 -1.59761e-14 0)
(5.26263 -1.75264e-14 0)
(5.26263 5.20757e-15 0)
(5.26263 1.63695e-15 0)
(5.26263 5.76099e-15 0)
(5.26263 -2.74047e-15 0)
(5.26263 -3.05686e-14 0)
(5.26263 -2.05135e-14 0)
(5.26263 1.61161e-14 0)
(5.26263 1.95267e-14 0)
(5.26263 5.94769e-15 0)
(5.26263 1.19887e-14 0)
(5.26263 8.53147e-15 0)
(5.26263 -8.17475e-15 0)
(5.26263 -1.12186e-14 0)
(5.26263 1.54127e-14 0)
(5.26263 3.87034e-14 0)
(5.26263 3.88867e-14 0)
(5.26263 7.08489e-14 0)
(5.26263 1.14753e-13 0)
(5.26263 1.57621e-13 0)
(5.26263 1.81565e-13 0)
(5.26263 1.52316e-13 0)
(5.26263 1.49689e-13 0)
(5.26263 1.163e-13 0)
(5.26263 -4.12405e-15 0)
(5.26263 -6.51713e-14 0)
(5.26263 -5.74132e-14 0)
(5.26263 -8.95488e-15 0)
(5.26263 1.91733e-14 0)
(5.26263 3.70731e-15 0)
(5.26263 1.47459e-14 0)
(5.26263 2.39008e-14 0)
(5.26263 3.29757e-14 0)
(5.26263 2.49143e-14 0)
(5.26263 8.1244e-14 0)
(5.26263 1.3239e-13 0)
(5.26263 1.1477e-13 0)
(5.26263 6.46412e-14 0)
(5.26263 8.37578e-14 0)
(5.26263 6.81651e-14 0)
(5.26263 8.24942e-14 0)
(5.26263 1.01187e-13 0)
(5.26263 7.09189e-14 0)
(5.26263 5.87201e-14 0)
(5.26263 3.96735e-14 0)
(5.26263 -5.58763e-15 0)
(5.26263 -1.81719e-14 0)
(5.26263 -5.33759e-15 0)
(5.26263 -2.95518e-14 0)
(5.26263 -4.6528e-14 0)
(5.26263 -4.6058e-14 0)
(5.26263 -5.10822e-14 0)
(5.26263 -4.23206e-14 0)
(5.26263 -4.03003e-14 0)
(5.26263 -6.05271e-14 0)
(5.26263 -4.91185e-14 0)
(5.26263 -5.99437e-15 0)
(5.26263 3.35691e-14 0)
(5.26263 5.87768e-14 0)
(5.26263 9.82136e-14 0)
(5.26263 -4.6308e-15 0)
(5.26263 -1.02628e-13 0)
(5.26263 -9.61933e-14 0)
(5.26263 -7.08456e-14 0)
(5.26263 -4.65647e-14 0)
(5.26263 -9.10824e-15 0)
(5.26263 -5.86768e-15 0)
(5.26263 8.77151e-15 0)
(5.26263 2.1367e-14 0)
(5.26263 3.14221e-14 0)
(5.26263 4.01836e-14 0)
(5.26263 8.3091e-14 0)
(5.26263 7.66099e-14 0)
(5.26263 4.89151e-14 0)
(5.26263 1.03818e-13 0)
(5.26263 1.40458e-13 0)
(5.26263 1.42271e-13 0)
(5.26263 9.87037e-14 0)
(5.26263 7.73367e-14 0)
(5.26263 1.08642e-13 0)
(5.26263 1.06145e-13 0)
(5.26263 6.32576e-14 0)
(5.26263 1.05682e-13 0)
(5.26263 1.01054e-13 0)
(5.26263 9.90338e-14 0)
(5.26263 7.12556e-14 0)
(5.26263 1.13022e-13 0)
(5.26263 -6.70116e-15 0)
(5.26263 -6.50446e-15 0)
(5.26263 1.77997e-14 0)
(5.26263 2.70313e-14 0)
(5.26263 -8.47146e-15 0)
(5.26263 -1.52026e-14 0)
(5.26263 -1.27422e-14 0)
(5.26263 -5.9977e-15 0)
(5.26263 7.56464e-15 0)
(5.26263 6.06738e-14 0)
(5.26263 1.02194e-13 0)
(5.26263 6.3581e-14 0)
(5.26263 -4.70081e-15 0)
(5.26263 -6.74917e-14 0)
(5.26263 -1.66395e-13 0)
(5.26263 -2.17514e-13 0)
(5.26263 -1.56014e-13 0)
(5.26263 -7.61865e-14 0)
(5.26263 5.66765e-15 0)
(5.26263 2.64679e-14 0)
(5.26263 1.24355e-15 0)
(5.26263 -1.7383e-14 0)
(5.26263 5.87902e-14 0)
(5.26263 2.15654e-13 0)
(5.26263 2.3019e-13 0)
(5.26263 1.79231e-13 0)
(5.26263 4.18606e-14 0)
(5.26263 8.36144e-15 0)
(5.26263 1.66495e-14 0)
(5.26263 -3.02719e-15 0)
(5.26263 1.89866e-14 0)
(5.26263 4.23606e-14 0)
(5.26263 4.32108e-14 0)
(5.26263 5.15522e-14 0)
(5.26263 1.38391e-14 0)
(5.26263 5.84768e-15 0)
(5.26263 3.25223e-14 0)
(5.26263 2.38374e-14 0)
(5.26263 1.13786e-14 0)
(5.26263 4.24334e-15 0)
(5.26263 -6.45445e-15 0)
(5.26263 -1.50026e-15 0)
(5.26263 -2.17037e-15 0)
(5.26263 -1.88866e-14 0)
(5.26263 -7.38794e-14 0)
(5.26263 -1.22461e-13 0)
(5.26263 -1.07169e-13 0)
(5.26263 -9.31861e-14 0)
(5.26263 -3.04519e-14 0)
(5.26263 4.2234e-14 0)
(5.26263 4.91352e-14 0)
(5.26263 3.90934e-14 0)
(5.26263 -1.95334e-14 0)
(5.26263 1.14586e-14 0)
(5.26263 -2.10036e-15 0)
(5.26263 -4.33675e-14 0)
(5.26263 -5.26591e-14 0)
(5.26263 -3.23122e-14 0)
(5.26263 -6.23441e-16 0)
(5.26263 2.40041e-14 0)
(5.26263 5.22924e-14 0)
(5.26263 9.33595e-14 0)
(5.26263 9.83537e-14 0)
(5.26263 1.3691e-13 0)
(5.26263 1.21618e-13 0)
(5.26263 6.74783e-14 0)
(5.26263 2.74014e-14 0)
(5.26263 -1.48692e-14 0)
(5.26263 -6.71216e-14 0)
(5.26263 -8.40412e-14 0)
(5.26263 -6.83685e-14 0)
(5.26263 -6.57714e-14 0)
(5.26263 -4.19372e-14 0)
(5.26263 -1.63061e-14 0)
(5.26263 -1.7403e-15 0)
(5.26263 7.08456e-15 0)
(5.26263 -1.87832e-14 0)
(5.26263 -6.51846e-14 0)
(5.26263 -7.75834e-14 0)
(5.26263 -5.31998e-14 0)
(5.26263 -1.11353e-15 0)
(5.26263 -1.01551e-14 0)
(5.26263 -4.42343e-14 0)
(5.26263 -1.10382e-13 0)
(5.26263 -8.76285e-14 0)
(5.26263 -4.4111e-14 0)
(5.26263 -1.06152e-14 0)
(5.26263 -1.93433e-14 0)
(5.26263 -3.41459e-14 0)
(5.26263 -2.63279e-14 0)
(5.26263 -2.86583e-14 0)
(5.26263 -3.41259e-14 0)
(5.26263 -5.70665e-14 0)
(5.26263 -5.49128e-14 0)
(5.26263 -2.51277e-14 0)
(5.26263 -3.81733e-15 0)
(5.26263 -3.25656e-14 0)
(5.26263 -9.83003e-14 0)
(5.26263 -9.73601e-14 0)
(5.26263 -7.29426e-14 0)
(5.26263 -3.35158e-14 0)
(5.26263 4.78449e-14 0)
(5.26263 8.67283e-14 0)
(5.26263 9.677e-14 0)
(5.26263 1.33506e-13 0)
(5.26263 1.39541e-13 0)
(5.26263 1.34043e-13 0)
(5.26263 -2.33374e-15 0)
(5.26263 -8.04972e-14 0)
(5.26263 -4.24273e-14 0)
(5.26263 -3.79032e-14 0)
(5.26263 -7.50763e-14 0)
(5.26263 -3.90067e-14 0)
(5.26263 -4.53245e-14 0)
(5.26263 -4.27407e-15 0)
(5.26263 -3.68664e-14 0)
(5.26263 -5.25624e-14 0)
(5.26263 -3.1032e-14 0)
(5.26263 4.98419e-15 0)
(5.26263 3.00949e-14 0)
(5.26263 1.40191e-14 0)
(5.26263 1.1472e-14 0)
(5.26263 2.19705e-14 0)
(5.26263 2.78515e-14 0)
(5.26263 5.50628e-14 0)
(5.26263 8.56881e-14 0)
(5.26263 8.23209e-14 0)
(5.26263 8.62016e-14 0)
(5.26263 1.88633e-14 0)
(5.26263 -2.77715e-14 0)
(5.26263 -5.89535e-14 0)
(5.26263 -8.05739e-14 0)
(5.26263 -7.82168e-14 0)
(5.26263 -9.22159e-14 0)
(5.26263 -3.85567e-14 0)
(5.26263 8.94154e-15 0)
(5.26263 7.53463e-15 0)
(5.26263 1.67696e-15 0)
(5.26263 9.20492e-15 0)
(5.26263 -1.35257e-14 0)
(5.26263 -5.2219e-14 0)
(5.26263 -1.87366e-14 0)
(5.26263 -3.32924e-14 0)
(5.26263 -2.69847e-14 0)
(5.26263 -4.27074e-14 0)
(5.26263 -3.10287e-14 0)
(5.26263 -2.32674e-14 0)
(5.26263 -4.0567e-14 0)
(5.26263 2.1007e-14 0)
(5.26263 2.24072e-14 0)
(5.26263 1.52393e-14 0)
(5.26263 -5.2189e-14 0)
(5.26263 -1.33003e-13 0)
(5.26263 -1.86049e-13 0)
(5.26263 -1.88459e-13 0)
(5.26263 -1.66269e-13 0)
(5.26263 -1.40904e-13 0)
(5.26263 -4.12771e-14 0)
(5.26263 3.24689e-14 0)
(5.26263 1.16456e-14 0)
(5.26263 -9.51831e-15 0)
(5.26263 -4.80083e-16 0)
(5.26263 7.87169e-14 0)
(5.26263 1.46562e-13 0)
(5.26263 1.12739e-13 0)
(5.26263 7.90903e-14 0)
(5.26263 5.33159e-14 0)
(5.26263 2.52344e-14 0)
(5.26263 -1.29289e-14 0)
(5.26263 -5.27391e-14 0)
(5.26263 -8.53247e-14 0)
(5.26263 -9.00989e-14 0)
(5.26263 -9.73568e-14 0)
(5.26263 -9.66e-14 0)
(5.26263 -5.48128e-14 0)
(5.26263 4.6088e-14 0)
(5.26263 5.32525e-14 0)
(5.26263 2.3034e-14 0)
(5.26263 1.03084e-14 0)
(5.26263 2.07869e-14 0)
(5.26263 2.05602e-14 0)
(5.26263 1.1372e-14 0)
(5.26263 -3.37658e-14 0)
(5.26263 -1.76537e-13 0)
(5.26263 -2.39885e-13 0)
(5.26263 -2.56568e-13 0)
(5.26263 -2.55697e-13 0)
(5.26263 -1.35343e-13 0)
(5.26263 -1.7153e-14 0)
(5.26263 -2.72414e-14 0)
(5.26263 -1.52826e-14 0)
(5.26263 1.61928e-14 0)
(5.26263 -4.8205e-14 0)
(5.26263 -1.66365e-13 0)
(5.26263 -2.15057e-13 0)
(5.26263 -1.87062e-13 0)
(5.26263 -1.22705e-13 0)
(5.26263 -8.54748e-14 0)
(5.26263 -3.20322e-14 0)
(5.26263 -6.79784e-14 0)
(5.26263 -3.77732e-15 0)
(5.26263 6.42778e-15 0)
(5.26263 4.58412e-15 0)
(5.26263 2.00568e-14 0)
(5.26263 3.39859e-14 0)
(5.26263 2.44576e-14 0)
(5.26263 7.01421e-14 0)
(5.26263 7.734e-14 0)
(5.26263 5.48561e-14 0)
(5.26263 -2.47509e-14 0)
(5.26263 -5.15889e-14 0)
(5.26263 -1.27975e-13 0)
(5.26263 -1.23625e-13 0)
(5.26263 -7.74767e-14 0)
(5.26263 -2.77115e-14 0)
(5.26263 -7.44129e-15 0)
(5.26263 -7.37461e-15 0)
(5.26263 8.24476e-15 0)
(5.26263 -5.801e-15 0)
(5.26263 -1.42591e-14 0)
(5.26263 1.69763e-14 0)
(5.26263 2.46042e-14 0)
(5.26263 -1.67429e-14 0)
(5.26263 -5.87168e-14 0)
(5.26263 -1.09856e-13 0)
(5.26263 -1.353e-13 0)
(5.26263 -1.18957e-13 0)
(5.26263 -5.74099e-14 0)
(5.26263 -4.07604e-14 0)
(5.26263 -5.53162e-14 0)
(5.26263 -2.76714e-14 0)
(5.26263 -2.86283e-14 0)
(5.26263 -3.22856e-14 0)
(5.26263 -6.61614e-14 0)
(5.26263 -8.07239e-14 0)
(5.26263 -9.29027e-14 0)
(5.26263 -1.00794e-13 0)
(5.26263 -1.02221e-13 0)
(5.26263 -1.07472e-13 0)
(5.26263 -9.22683e-14 0)
(5.26263 4.4441e-15 0)
(5.26263 1.50359e-15 0)
(5.26263 -3.01485e-14 0)
(5.26263 -4.30274e-14 0)
(5.26263 -2.98918e-14 0)
(5.26263 -7.91803e-15 0)
(5.26263 1.10652e-14 0)
(5.26263 3.3069e-14 0)
(5.26263 -1.66262e-14 0)
(5.26263 -4.96286e-14 0)
(5.26263 -1.02824e-13 0)
(5.26263 -9.58966e-14 0)
(5.26263 -9.08157e-15 0)
(5.26263 -4.90085e-15 0)
(5.26263 -1.80698e-14 0)
(5.26263 -4.37742e-15 0)
(5.26263 -1.80698e-15 0)
(5.26263 3.95702e-14 0)
(5.26263 8.09373e-14 0)
(5.26263 3.43759e-14 0)
(5.26263 -4.19372e-14 0)
(5.26263 -3.74765e-14 0)
(5.26263 -3.66463e-14 0)
(5.26263 -9.39829e-15 0)
(5.26263 2.32707e-15 0)
(5.26263 3.00052e-15 0)
(5.26263 2.24039e-14 0)
(5.26263 7.38461e-15 0)
(5.26263 -3.06253e-14 0)
(5.26263 -4.61613e-14 0)
(5.26263 -8.6785e-14 0)
(5.26263 -1.38004e-13 0)
(5.26263 -1.18727e-13 0)
(5.26263 -7.06055e-14 0)
(5.26263 -5.54529e-14 0)
(5.26263 -4.4171e-14 0)
(5.26263 -3.66763e-14 0)
(5.26263 -5.99704e-14 0)
(5.26263 -2.33224e-13 0)
(5.26263 -2.39791e-13 0)
(5.26263 -3.04386e-15 0)
(5.26263 -1.58994e-14 0)
(5.26263 -4.6408e-14 0)
(5.26263 -5.72099e-14 0)
(5.26263 -8.84619e-14 0)
(5.26263 -1.01534e-13 0)
(5.26263 -1.1381e-13 0)
(5.26263 -1.00224e-13 0)
(5.26263 -9.03323e-14 0)
(5.26263 -1.1452e-13 0)
(5.26263 -1.50946e-13 0)
(5.26263 -5.24257e-14 0)
(5.26263 -2.31473e-14 0)
(5.26263 -2.84216e-14 0)
(5.26263 -3.65997e-14 0)
(5.26263 -2.57078e-14 0)
(5.26263 -3.2939e-14 0)
(5.26263 -5.20557e-14 0)
(5.26263 -9.41163e-15 0)
(5.26263 3.38325e-14 0)
(5.26263 2.12703e-15 0)
(5.26263 2.66379e-15 0)
(5.26263 -1.29989e-14 0)
(5.26263 -1.69596e-14 0)
(5.26263 3.25056e-15 0)
(5.26263 3.19055e-14 0)
(5.26263 1.50793e-14 0)
(5.26263 -1.38357e-15 0)
(5.26263 -5.45761e-15 0)
(5.26263 2.00235e-14 0)
(5.26263 1.46692e-15 0)
(5.26263 3.01385e-15 0)
(5.26263 -2.86716e-15 0)
(5.26263 -3.22456e-14 0)
(5.26263 -7.32627e-14 0)
(5.26263 -1.00501e-13 0)
(5.26263 -7.52597e-14 0)
(5.26263 -1.62361e-14 0)
(5.26263 3.70297e-14 0)
(5.26263 4.93656e-14 0)
(5.26263 -8.35811e-15 0)
(5.26263 -9.665e-15 0)
(5.26263 -1.39691e-14 0)
(5.26263 1.11919e-14 0)
(5.26263 1.23821e-14 0)
(5.26263 -4.93885e-14 0)
(5.26263 -1.22938e-13 0)
(5.26263 -1.47249e-13 0)
(5.26263 -1.10399e-13 0)
(5.26263 -1.15463e-13 0)
(5.26263 -7.98271e-14 0)
(5.26263 -3.31957e-14 0)
(5.26263 -2.34107e-14 0)
(5.26263 -2.26472e-14 0)
(5.26263 -8.30777e-14 0)
(5.26263 -1.00694e-13 0)
(5.26263 -5.86168e-14 0)
(5.26263 3.53394e-14 0)
(5.26263 5.13489e-14 0)
(5.26263 4.13471e-14 0)
(5.26263 5.74266e-14 0)
(5.26263 2.98151e-14 0)
(5.26263 3.20189e-14 0)
(5.26263 4.96119e-14 0)
(5.26263 8.64716e-14 0)
(5.26263 7.83035e-14 0)
(5.26263 2.76681e-14 0)
(5.26263 -2.02468e-14 0)
(5.26263 1.35323e-14 0)
(5.26263 4.55445e-14 0)
(5.26263 3.92468e-14 0)
(5.26263 4.4681e-14 0)
(5.26263 -1.02351e-15 0)
(5.26263 -7.96804e-15 0)
(5.26263 6.04771e-15 0)
(5.26263 3.33691e-14 0)
(5.26263 -5.21457e-14 0)
(5.26263 -1.33093e-13 0)
(5.26263 -1.29839e-13 0)
(5.26263 -8.31223e-14 0)
(5.26263 -8.43479e-15 0)
(5.26263 -4.20739e-15 0)
(5.26263 1.99801e-14 0)
(5.26263 3.97269e-14 0)
(5.26263 8.07706e-14 0)
(5.26263 9.0649e-14 0)
(5.26263 2.72647e-14 0)
(5.26263 -9.46163e-15 0)
(5.26263 -3.44826e-14 0)
(5.26263 -3.14521e-14 0)
(5.26263 2.86716e-14 0)
(5.26263 2.03135e-14 0)
(5.26263 1.49859e-14 0)
(5.26263 -4.73782e-14 0)
(5.26263 -9.11491e-14 0)
(5.26263 -1.29386e-13 0)
(5.26263 -2.63379e-14 0)
(5.26263 8.41945e-14 0)
(5.26263 1.03238e-13 0)
(5.26263 1.26372e-13 0)
(5.26263 7.44995e-14 0)
(5.26263 5.72599e-14 0)
(5.26263 6.72783e-14 0)
(5.26263 5.84168e-14 0)
(5.26263 5.05387e-14 0)
(5.26263 5.10788e-14 0)
(5.26263 4.48411e-14 0)
(5.26263 3.11854e-14 0)
(5.26263 6.11906e-14 0)
(5.26263 1.04051e-13 0)
(5.26263 1.25765e-13 0)
(5.26263 9.82436e-14 0)
(5.26263 4.92152e-14 0)
(5.26263 7.56664e-14 0)
(5.26263 1.25815e-13 0)
(5.26263 2.19371e-13 0)
(5.26263 2.21275e-13 0)
(5.26263 6.5708e-14 0)
(5.26263 1.3489e-14 0)
(5.26263 -1.5415e-14 0)
(5.26263 1.7273e-14 0)
(5.26263 2.10036e-14 0)
(5.26263 3.89034e-14 0)
(5.26263 2.73547e-14 0)
(5.26263 4.6378e-14 0)
(5.26263 1.02574e-13 0)
(5.26263 1.33643e-13 0)
(5.26263 1.22124e-13 0)
(5.26263 8.00172e-14 0)
(5.26263 1.1293e-13 0)
(5.26263 1.19307e-13 0)
(5.26263 9.63066e-14 0)
(5.26263 4.16605e-14 0)
(5.26263 -2.34807e-14 0)
(5.26263 -3.72631e-14 0)
(5.26263 -1.80131e-14 0)
(5.26263 -1.10419e-14 0)
(5.26263 4.55179e-14 0)
(5.26263 1.02804e-13 0)
(5.26263 8.9062e-14 0)
(5.26263 1.03028e-13 0)
(5.26263 1.45422e-13 0)
(5.26263 1.5185e-13 0)
(5.26263 1.15483e-13 0)
(5.26263 1.04691e-13 0)
(5.26263 8.82952e-14 0)
(5.26263 -1.68129e-14 0)
(5.26263 -2.92117e-14 0)
(5.26263 -1.5536e-14 0)
(5.26263 3.2979e-14 0)
(5.26263 1.42401e-13 0)
(5.26263 2.21435e-13 0)
(5.26263 2.63202e-13 0)
(5.26263 2.40668e-13 0)
(5.26263 2.28183e-13 0)
(5.26263 2.53607e-13 0)
(5.26263 2.28773e-13 0)
(5.26263 1.5295e-13 0)
(5.26263 1.53947e-13 0)
(5.26263 1.29079e-13 0)
(5.26263 5.35092e-15 0)
(5.26263 2.16704e-16 0)
(5.26263 -1.5386e-14 0)
(5.26263 -6.61448e-15 0)
(5.26263 -4.38076e-15 0)
(5.26263 1.20954e-14 0)
(5.26263 6.69449e-14 0)
(5.26263 7.22391e-14 0)
(5.26263 5.49728e-14 0)
(5.26263 5.81167e-14 0)
(5.26263 5.63564e-14 0)
(5.26263 7.85202e-14 0)
(5.26263 5.87068e-14 0)
(5.26263 3.95368e-14 0)
(5.26263 3.39559e-14 0)
(5.26263 6.99021e-14 0)
(5.26263 8.70884e-14 0)
(5.26263 3.86067e-14 0)
(5.26263 4.49344e-14 0)
(5.26263 4.37209e-14 0)
(5.26263 7.55997e-14 0)
(5.26263 1.06458e-13 0)
(5.26263 1.69929e-13 0)
(5.26263 1.41398e-13 0)
(5.26263 5.69065e-14 0)
(5.26263 9.2716e-15 0)
(5.26263 -2.27706e-14 0)
(5.26263 -3.48894e-14 0)
(5.26263 -6.39944e-14 0)
(5.26263 -9.58165e-15 0)
(5.26263 5.82101e-15 0)
(5.26263 8.41379e-14 0)
(5.26263 1.7193e-13 0)
(5.26263 1.99091e-13 0)
(5.26263 1.98488e-13 0)
(5.26263 6.46745e-14 0)
(5.26263 -6.7535e-14 0)
(5.26263 -9.52031e-14 0)
(5.26263 -1.90333e-14 0)
(5.26263 1.90902e-14 0)
(5.26263 5.66765e-17 0)
(5.26263 4.92752e-15 0)
(5.26263 -1.65529e-14 0)
(5.26263 -5.69665e-14 0)
(5.26263 -6.93286e-14 0)
(5.26263 -5.38293e-14 0)
(5.26263 -1.53126e-14 0)
(5.26263 3.03719e-15 0)
(5.26263 2.77181e-14 0)
(5.26263 2.06236e-14 0)
(5.26263 1.58894e-14 0)
(5.26263 4.67514e-14 0)
(5.26263 9.81703e-14 0)
(5.26263 1.19884e-13 0)
(5.26263 9.44796e-14 0)
(5.26263 7.5373e-14 0)
(5.26263 -1.45425e-14 0)
(5.26263 -6.62714e-14 0)
(5.26263 -3.60029e-14 0)
(5.26263 4.44343e-14 0)
(5.26263 7.5383e-14 0)
(5.26263 1.59918e-13 0)
(5.26263 2.14094e-13 0)
(5.26263 2.46649e-13 0)
(5.26263 2.7043e-13 0)
(5.26263 2.77631e-13 0)
(5.26263 4.04803e-14 0)
(5.26263 -5.74032e-14 0)
(5.26263 -8.69684e-14 0)
(5.26263 -9.89171e-14 0)
(5.26263 -9.23926e-14 0)
(5.26263 -9.0649e-15 0)
(5.26263 5.57796e-14 0)
(5.26263 9.08257e-14 0)
(5.26263 1.35507e-13 0)
(5.26263 1.70466e-13 0)
(5.26263 1.31546e-13 0)
(5.26263 6.45111e-14 0)
(5.26263 2.55177e-14 0)
(5.26263 -8.62049e-15 0)
(5.26263 -3.15054e-15 0)
(5.26263 -4.73082e-15 0)
(5.26263 1.11019e-14 0)
(5.26263 7.43462e-16 0)
(5.26263 -2.04235e-14 0)
(5.26263 -3.6723e-14 0)
(5.26263 -5.29892e-14 0)
(5.26263 -3.13187e-14 0)
(5.26263 6.90786e-15 0)
(5.26263 2.63145e-14 0)
(5.26263 5.44427e-14 0)
(5.26263 1.13833e-13 0)
(5.26263 1.29746e-13 0)
(5.26263 1.24865e-13 0)
(5.26263 8.38345e-14 0)
(5.26263 -1.18654e-14 0)
(5.26263 -4.19806e-14 0)
(5.26263 -2.9095e-14 0)
(5.26263 4.62747e-15 0)
(5.26263 7.95871e-14 0)
(5.26263 1.35413e-13 0)
(5.26263 1.3778e-13 0)
(5.26263 5.12955e-14 0)
(5.26263 6.56747e-14 0)
(5.26263 4.9902e-14 0)
(5.26263 4.50544e-14 0)
(5.26263 3.92234e-14 0)
(5.26263 3.02786e-14 0)
(5.26263 3.59129e-14 0)
(5.26263 3.44093e-14 0)
(5.26263 4.59046e-14 0)
(5.26263 1.88733e-14 0)
(5.26263 -1.27595e-13 0)
(5.26263 -1.76204e-13 0)
(5.26263 -1.62455e-13 0)
(5.26263 -8.90454e-14 0)
(5.26263 -1.71763e-14 0)
(5.26263 2.72414e-14 0)
(5.26263 6.31009e-14 0)
(5.26263 8.5986e-14 0)
(5.26263 -3.71731e-15 0)
(5.26263 -2.08036e-14 0)
(5.26263 -1.19987e-14 0)
(5.26263 2.73981e-14 0)
(5.26263 3.86033e-14 0)
(5.26263 3.63063e-14 0)
(5.26263 -3.46393e-15 0)
(5.26263 -1.70563e-14 0)
(5.26263 -4.40476e-14 0)
(5.26263 -5.93102e-14 0)
(5.26263 -4.23406e-14 0)
(5.26263 -6.81118e-15 0)
(5.26263 -2.63712e-14 0)
(5.26263 -5.31225e-14 0)
(5.26263 -5.54296e-14 0)
(5.26263 -3.92835e-14 0)
(5.26263 -1.28722e-14 0)
(5.26263 2.96485e-14 0)
(5.26263 4.40476e-14 0)
(5.26263 5.84101e-14 0)
(5.26263 6.59447e-14 0)
(5.26263 5.90735e-14 0)
(5.26263 1.69429e-14 0)
(5.26263 -5.91736e-14 0)
(5.26263 -5.16222e-14 0)
(5.26263 -5.70098e-15 0)
(5.26263 7.9287e-14 0)
(5.26263 8.00338e-14 0)
(5.26263 4.42743e-15 0)
(5.26263 -7.80468e-15 0)
(5.26263 -7.12456e-15 0)
(5.26263 -5.17089e-14 0)
(5.26263 -9.90471e-14 0)
(5.26263 -1.20454e-13 0)
(5.26263 -1.65725e-13 0)
(5.26263 -4.27574e-14 0)
(5.26263 8.81519e-14 0)
(5.26263 2.53871e-13 0)
(5.26263 2.99482e-13 0)
(5.26263 2.94705e-13 0)
(5.26263 9.07157e-15 0)
(5.26263 1.07719e-14 0)
(5.26263 -2.73381e-16 0)
(5.26263 3.11054e-15 0)
(5.26263 2.41175e-14 0)
(5.26263 1.31389e-14 0)
(5.26263 3.41292e-14 0)
(5.26263 1.11619e-14 0)
(5.26263 -3.0752e-14 0)
(5.26263 -7.03955e-14 0)
(5.26263 -1.08272e-13 0)
(5.26263 -1.39774e-13 0)
(5.26263 -1.02208e-13 0)
(5.26263 -8.18608e-14 0)
(5.26263 -1.95034e-14 0)
(5.26263 6.72149e-14 0)
(5.26263 1.16117e-13 0)
(5.26263 1.18234e-13 0)
(5.26263 6.83285e-14 0)
(5.26263 3.46226e-14 0)
(5.26263 4.53178e-14 0)
(5.26263 3.78332e-14 0)
(5.26263 -1.07065e-13 0)
(5.26263 -1.57694e-13 0)
(5.26263 -1.09009e-13 0)
(5.26263 -2.94884e-14 0)
(5.26263 5.34026e-14 0)
(5.26263 1.18787e-13 0)
(5.26263 9.72901e-14 0)
(5.26263 4.18372e-14 0)
(5.26263 -1.00884e-14 0)
(5.26263 -3.23056e-14 0)
(5.26263 1.06552e-14 0)
(5.26263 2.82715e-14 0)
(5.26263 2.11103e-14 0)
(5.26263 1.922e-14 0)
(5.26263 9.66934e-14 0)
(5.26263 1.3355e-13 0)
(5.26263 1.34253e-13 0)
(5.26263 1.41265e-13 0)
(5.26263 5.62764e-15 0)
(5.26263 5.00753e-15 0)
(5.26263 1.81565e-14 0)
(5.26263 3.6653e-14 0)
(5.26263 4.47277e-14 0)
(5.26263 -4.88084e-15 0)
(5.26263 -3.84866e-14 0)
(5.26263 -3.22622e-14 0)
(5.26263 -7.96137e-15 0)
(5.26263 -1.32356e-15 0)
(5.26263 -5.30758e-15 0)
(5.26263 -4.58746e-15 0)
(5.26263 7.1379e-14 0)
(5.26263 1.05308e-13 0)
(5.26263 1.1859e-13 0)
(5.26263 1.25362e-13 0)
(5.26263 7.91737e-14 0)
(5.26263 1.24822e-14 0)
(5.26263 1.31923e-14 0)
(5.26263 4.8275e-14 0)
(5.26263 4.04403e-14 0)
(5.26263 -1.3629e-13 0)
(5.26263 -2.07059e-13 0)
(5.26263 -2.64579e-13 0)
(5.26263 -2.71544e-13 0)
(5.26263 -1.5243e-13 0)
(5.26263 2.25906e-14 0)
(5.26263 8.85086e-14 0)
(5.26263 8.61582e-14 0)
(5.26263 5.5843e-15 0)
(5.26263 -2.38408e-14 0)
(5.26263 -5.66098e-14 0)
(5.26263 -1.38947e-13 0)
(5.26263 -1.31229e-13 0)
(5.26263 -1.27285e-13 0)
(5.26263 -1.28135e-13 0)
(5.26263 8.31344e-14 0)
(5.26263 1.35883e-13 0)
(5.26263 1.43942e-13 0)
(5.26263 1.64582e-13 0)
(5.26263 -2.93384e-16 0)
(5.26263 1.88899e-14 0)
(5.26263 4.10971e-14 0)
(5.26263 2.55311e-14 0)
(5.26263 -1.56794e-14 0)
(5.26263 -5.47428e-15 0)
(5.26263 -4.0567e-14 0)
(5.26263 -3.81399e-14 0)
(5.26263 -1.30956e-14 0)
(5.26263 4.50111e-14 0)
(5.26263 8.22709e-14 0)
(5.26263 8.59548e-14 0)
(5.26263 7.83602e-14 0)
(5.26263 7.3066e-14 0)
(5.26263 6.5558e-14 0)
(5.26263 5.37626e-14 0)
(5.26263 5.12855e-14 0)
(5.26263 6.36977e-14 0)
(5.26263 2.59978e-14 0)
(5.26263 -2.13337e-14 0)
(5.26263 -9.15758e-14 0)
(5.26263 -9.83136e-14 0)
(5.26263 -1.02648e-13 0)
(5.26263 -5.91902e-14 0)
(5.26263 -4.98453e-14 0)
(5.26263 -5.91669e-14 0)
(5.26263 -6.50346e-14 0)
(5.26263 -2.05102e-14 0)
(5.26263 1.28616e-13 0)
(5.26263 1.9339e-13 0)
(5.26263 1.55554e-13 0)
(5.26263 1.94667e-14 0)
(5.26263 -7.47762e-14 0)
(5.26263 -1.07042e-13 0)
(5.26263 -1.06522e-13 0)
(5.26263 2.36141e-14 0)
(5.26263 9.69734e-14 0)
(5.26263 1.23825e-13 0)
(5.26263 2.31307e-13 0)
(5.26263 3.11689e-13 0)
(5.26263 -1.61895e-14 0)
(5.26263 -1.22421e-14 0)
(5.26263 -3.81633e-14 0)
(5.26263 -6.85918e-14 0)
(5.26263 -7.00554e-14 0)
(5.26263 -5.09988e-14 0)
(5.26263 -3.97802e-14 0)
(5.26263 -5.01453e-14 0)
(5.26263 -5.50295e-14 0)
(5.26263 -1.81031e-14 0)
(5.26263 1.32123e-14 0)
(5.26263 1.82231e-14 0)
(5.26263 -8.06806e-16 0)
(5.26263 4.57412e-15 0)
(5.26263 1.57594e-14 0)
(5.26263 5.81134e-14 0)
(5.26263 8.03572e-14 0)
(5.26263 3.92201e-14 0)
(5.26263 -6.30409e-14 0)
(5.26263 -1.11636e-13 0)
(5.26263 -1.73127e-13 0)
(5.26263 -1.74653e-13 0)
(5.26263 -1.24748e-13 0)
(5.26263 -5.79367e-14 0)
(5.26263 1.61128e-14 0)
(5.26263 5.51695e-14 0)
(5.26263 4.95052e-14 0)
(5.26263 9.77702e-14 0)
(5.26263 1.42151e-13 0)
(5.26263 1.72323e-13 0)
(5.26263 1.77847e-13 0)
(5.26263 1.52313e-13 0)
(5.26263 1.46025e-13 0)
(5.26263 8.19408e-14 0)
(5.26263 2.57945e-14 0)
(5.26263 -2.05035e-15 0)
(5.26263 -3.89567e-14 0)
(5.26263 -6.62414e-14 0)
(5.26263 -1.37167e-13 0)
(5.26263 7.5813e-14 0)
(5.26263 -5.84768e-15 0)
(5.26263 -2.22705e-15 0)
(5.26263 -1.24221e-14 0)
(5.26263 -1.5446e-14 0)
(5.26263 -7.47129e-15 0)
(5.26263 5.801e-15 0)
(5.26263 3.16055e-15 0)
(5.26263 -1.06718e-14 0)
(5.26263 -1.35123e-14 0)
(5.26263 -3.58695e-14 0)
(5.26263 -1.1406e-13 0)
(5.26263 -6.5398e-14 0)
(5.26263 -5.36593e-14 0)
(5.26263 -4.79349e-14 0)
(5.26263 -1.55827e-14 0)
(5.26263 3.03219e-14 0)
(5.26263 5.58763e-15 0)
(5.26263 -4.79016e-14 0)
(5.26263 -4.23006e-14 0)
(5.26263 -7.89503e-14 0)
(5.26263 -1.21811e-13 0)
(5.26263 -1.41491e-13 0)
(5.26263 -1.46959e-13 0)
(5.26263 -1.01538e-13 0)
(5.26263 -7.65132e-14 0)
(5.26263 -1.57594e-14 0)
(5.26263 9.15158e-14 0)
(5.26263 1.03715e-13 0)
(5.26263 7.46596e-14 0)
(5.26263 5.49061e-14 0)
(5.26263 5.44394e-14 0)
(5.26263 1.14143e-13 0)
(5.26263 1.65422e-13 0)
(5.26263 1.20104e-13 0)
(5.26263 3.92734e-15 0)
(5.26263 -7.08156e-14 0)
(5.26263 -7.78701e-14 0)
(5.26263 -1.00907e-13 0)
(5.26263 -1.71663e-13 0)
(5.26263 -1.43963e-13 0)
(5.26263 1.58561e-14 0)
(5.26263 1.06018e-14 0)
(5.26263 2.53177e-14 0)
(5.26263 2.57778e-14 0)
(5.26263 1.14053e-14 0)
(5.26263 4.03636e-14 0)
(5.26263 6.46012e-14 0)
(5.26263 6.7615e-14 0)
(5.26263 5.65031e-14 0)
(5.26263 2.27239e-14 0)
(5.26263 -5.39093e-15 0)
(5.26263 -1.07619e-14 0)
(5.26263 2.76648e-14 0)
(5.26263 6.79151e-14 0)
(5.26263 5.37493e-14 0)
(5.26263 2.59545e-14 0)
(5.26263 -5.0142e-15 0)
(5.26263 -3.18255e-14 0)
(5.26263 -5.29425e-15 0)
(5.26263 -1.28789e-14 0)
(5.26263 -9.40496e-15 0)
(5.26263 1.48359e-15 0)
(5.26263 -1.84932e-14 0)
(5.26263 -5.85634e-14 0)
(5.26263 -5.94703e-14 0)
(5.26263 -4.51145e-14 0)
(5.26263 4.21739e-15 0)
(5.26263 3.79199e-14 0)
(5.26263 -5.55763e-15 0)
(5.26263 -6.56413e-14 0)
(5.26263 -8.48547e-14 0)
(5.26263 -3.60762e-14 0)
(5.26263 -8.96488e-15 0)
(5.26263 -3.35925e-14 0)
(5.26263 1.03451e-14 0)
(5.26263 -4.35442e-14 0)
(5.26263 -7.04088e-14 0)
(5.26263 -1.37047e-13 0)
(5.26263 -1.55293e-13 0)
(5.26263 -1.74801e-13 0)
(5.26263 7.43462e-16 0)
(5.26263 7.10123e-16 0)
(5.26263 1.15053e-14 0)
(5.26263 2.05636e-14 0)
(5.26263 3.29023e-14 0)
(5.26263 3.84233e-14 0)
(5.26263 4.08471e-14 0)
(5.26263 2.6908e-14 0)
(5.26263 -1.43325e-14 0)
(5.26263 -5.01487e-14 0)
(5.26263 -1.46125e-14 0)
(5.26263 4.42076e-14 0)
(5.26263 5.5733e-14 0)
(5.26263 1.16127e-13 0)
(5.26263 2.21472e-14 0)
(5.26263 -3.62729e-14 0)
(5.26263 -4.29541e-14 0)
(5.26263 -3.70764e-14 0)
(5.26263 -6.60614e-14 0)
(5.26263 -4.80816e-14 0)
(5.26263 -6.50446e-15 0)
(5.26263 -2.49676e-14 0)
(5.26263 -5.77933e-14 0)
(5.26263 2.27139e-14 0)
(5.26263 8.94221e-14 0)
(5.26263 1.02251e-13 0)
(5.26263 9.99806e-14 0)
(5.26263 1.00207e-13 0)
(5.26263 6.48512e-14 0)
(5.26263 3.01719e-15 0)
(5.26263 -5.89502e-14 0)
(5.26263 -9.53565e-14 0)
(5.26263 -1.21491e-13 0)
(5.26263 -7.28793e-15 0)
(5.26263 4.39409e-15 0)
(5.26263 -1.5566e-14 0)
(5.26263 -1.03978e-13 0)
(5.26263 -1.09856e-13 0)
(5.26263 -1.59404e-13 0)
(5.26263 -2.87415e-13 0)
(5.26263 1.35357e-15 0)
(5.26263 2.89283e-14 0)
(5.26263 2.55111e-14 0)
(5.26263 2.62845e-14 0)
(5.26263 6.28409e-14 0)
(5.26263 5.75033e-14 0)
(5.26263 5.39893e-14 0)
(5.26263 9.02723e-14 0)
(5.26263 1.06632e-13 0)
(5.26263 7.14457e-14 0)
(5.26263 4.83317e-14 0)
(5.26263 4.17472e-14 0)
(5.26263 -2.03402e-14 0)
(5.26263 -9.36428e-14 0)
(5.26263 -2.43505e-13 0)
(5.26263 -2.64016e-13 0)
(5.26263 -2.11417e-13 0)
(5.26263 -1.89773e-13 0)
(5.26263 -1.87282e-13 0)
(5.26263 -7.5453e-14 0)
(5.26263 -4.19839e-14 0)
(5.26263 -4.28141e-14 0)
(5.26263 -1.84165e-14 0)
(5.26263 5.43094e-15 0)
(5.26263 9.13824e-15 0)
(5.26263 -1.91166e-14 0)
(5.26263 -3.65096e-14 0)
(5.26263 -6.90686e-14 0)
(5.26263 -6.85218e-14 0)
(5.26263 5.61697e-14 0)
(5.26263 4.92885e-14 0)
(5.26263 -2.53177e-14 0)
(5.26263 1.35257e-14 0)
(5.26263 1.25818e-13 0)
(5.26263 1.21408e-13 0)
(5.26263 1.12943e-13 0)
(5.26263 5.80334e-14 0)
(5.26263 -4.88318e-14 0)
(5.26263 -9.97639e-14 0)
(5.26263 -9.83499e-14 0)
(5.26263 -8.16808e-16 0)
(5.26263 -2.5101e-14 0)
(5.26263 -6.24641e-14 0)
(5.26263 -4.98053e-14 0)
(5.26263 -5.71465e-14 0)
(5.26263 -6.46345e-14 0)
(5.26263 -4.60446e-14 0)
(5.26263 -1.38191e-14 0)
(5.26263 1.46825e-14 0)
(5.26263 7.1279e-14 0)
(5.26263 7.58831e-14 0)
(5.26263 4.15138e-14 0)
(5.26263 -5.10622e-14 0)
(5.26263 -1.42271e-13 0)
(5.26263 -1.60851e-13 0)
(5.26263 -1.47169e-13 0)
(5.26263 -1.19951e-13 0)
(5.26263 -1.07419e-13 0)
(5.26263 -6.87619e-14 0)
(5.26263 -3.22856e-14 0)
(5.26263 -2.75414e-14 0)
(5.26263 1.7183e-14 0)
(5.26263 8.5098e-14 0)
(5.26263 5.83634e-14 0)
(5.26263 -5.08088e-14 0)
(5.26263 -9.68367e-14 0)
(5.26263 -1.17377e-13 0)
(5.26263 -7.83835e-14 0)
(5.26263 -3.39725e-15 0)
(5.26263 2.46943e-14 0)
(5.26263 -4.98953e-14 0)
(5.26263 -7.49029e-14 0)
(5.26263 -4.89084e-14 0)
(5.26263 -1.01518e-14 0)
(5.26263 2.86883e-14 0)
(5.26263 8.95821e-14 0)
(5.26263 9.12424e-14 0)
(5.26263 1.90099e-14 0)
(5.26263 1.97001e-14 0)
(5.26263 1.98452e-14 0)
(5.26263 2.08703e-15 0)
(5.26263 -1.27989e-14 0)
(5.26263 -2.56711e-14 0)
(5.26263 -3.77599e-14 0)
(5.26263 -7.02955e-14 0)
(5.26263 -5.98837e-14 0)
(5.26263 -7.66366e-14 0)
(5.26263 -1.07392e-13 0)
(5.26263 -1.19257e-13 0)
(5.26263 -3.48994e-14 0)
(5.26263 -1.14286e-14 0)
(5.26263 -3.86933e-14 0)
(5.26263 -4.76849e-14 0)
(5.26263 -4.82183e-14 0)
(5.26263 -3.77665e-14 0)
(5.26263 -7.95937e-14 0)
(5.26263 -1.02668e-13 0)
(5.26263 -1.01147e-13 0)
(5.26263 -1.40381e-13 0)
(5.26263 -9.0809e-14 0)
(5.26263 -2.60645e-14 0)
(5.26263 4.56746e-16 0)
(5.26263 2.46042e-15 0)
(5.26263 3.43059e-15 0)
(5.26263 -1.04345e-13 0)
(5.26263 -1.40728e-13 0)
(5.26263 -1.33733e-13 0)
(5.26263 -1.30739e-13 0)
(5.26263 -1.01037e-13 0)
(5.26263 -1.33986e-13 0)
(5.26263 -1.58797e-13 0)
(5.26263 -1.44592e-13 0)
(5.26263 -1.41064e-13 0)
(5.26263 -1.38617e-13 0)
(5.26263 -1.46612e-13 0)
(5.26263 -1.80695e-13 0)
(5.26263 -1.76681e-13 0)
(5.26263 -1.79824e-13 0)
(5.26263 -1.12709e-13 0)
(5.26263 -9.91317e-15 0)
(5.26263 -2.72714e-15 0)
(5.26263 1.81031e-15 0)
(5.26263 3.56895e-14 0)
(5.26263 4.48211e-14 0)
(5.26263 4.80716e-14 0)
(5.26263 4.05803e-14 0)
(5.26263 7.25125e-15 0)
(5.26263 -3.1062e-14 0)
(5.26263 -6.03704e-14 0)
(5.26263 -5.89235e-14 0)
(5.26263 -1.12286e-14 0)
(5.26263 -1.13753e-14 0)
(5.26263 -1.97367e-15 0)
(5.26263 -5.07921e-14 0)
(5.26263 -1.904e-14 0)
(5.26263 -4.71015e-14 0)
(5.26263 -4.46777e-14 0)
(5.26263 -3.59962e-14 0)
(5.26263 -6.1944e-15 0)
(5.26263 -5.21623e-14 0)
(5.26263 -5.95469e-14 0)
(5.26263 -5.69065e-14 0)
(5.26263 -4.34875e-14 0)
(5.26263 3.72498e-14 0)
(5.26263 4.8445e-14 0)
(5.26263 4.47611e-14 0)
(5.26263 4.0657e-14 0)
(5.26263 2.59178e-14 0)
(5.26263 -1.23181e-13 0)
(5.26263 -2.03455e-13 0)
(5.26263 -1.81855e-13 0)
(5.26263 -1.77071e-13 0)
(5.26263 -1.45125e-13 0)
(5.26263 -1.71626e-13 0)
(5.26263 -1.97381e-13 0)
(5.26263 -3.14614e-13 0)
(5.26263 -3.39785e-13 0)
(5.26263 -2.80415e-13 0)
(5.26263 -1.70946e-13 0)
(5.26263 -1.55898e-13 0)
(5.26263 5.75766e-15 0)
(5.26263 1.45092e-14 0)
(5.26263 3.42893e-14 0)
(5.26263 6.01571e-14 0)
(5.26263 5.64497e-14 0)
(5.26263 1.78431e-14 0)
(5.26263 1.88933e-14 0)
(5.26263 1.35123e-14 0)
(5.26263 5.35759e-15 0)
(5.26263 1.94167e-14 0)
(5.26263 3.74465e-14 0)
(5.26263 6.5668e-14 0)
(5.26263 3.51061e-14 0)
(5.26263 8.80152e-15 0)
(5.26263 -6.35776e-15 0)
(5.26263 -3.10987e-14 0)
(5.26263 -1.33323e-14 0)
(5.26263 7.92137e-15 0)
(5.26263 9.77702e-14 0)
(5.26263 9.01456e-14 0)
(5.26263 5.84801e-14 0)
(5.26263 5.82867e-14 0)
(5.26263 6.64115e-14 0)
(5.26263 6.02371e-14 0)
(5.26263 1.1762e-13 0)
(5.26263 1.28709e-13 0)
(5.26263 8.43379e-14 0)
(5.26263 3.29257e-14 0)
(5.26263 5.26258e-14 0)
(5.26263 9.34495e-15 0)
(5.26263 -2.99418e-14 0)
(5.26263 -6.11172e-14 0)