/*--------------------------------*- C++ -*----------------------------------*\
| =========                 |                                                 |
| \\      /  F ield         | OpenFOAM: The Open Source CFD Toolbox           |
|  \\    /   O peration     | Version:  2206                                  |
|   \\  /    A nd           | Website:  www.openfoam.com                      |
|    \\/     M anipulation  |                                                 |
\*---------------------------------------------------------------------------*/
FoamFile
{
    version     2.0;
    format      ascii;
    arch        "LSB;label=32;scalar=64";
    class       volScalarField;
    location    "0.18";
    object      T;
}
// * * * * * * * * * * * * * * * * * * * * * * * * * * * * * * * * * * * * * //

dimensions      [0 0 0 1 0 0 0];

internalField   nonuniform List<scalar> 
4800
(
1
1
1
1
1
1
1
1
1
1
1
1
1
1
1
1
1
1
1
1
1
1
1
1
1
1
1
1
1
1
1
1
1
1
1
1
1
1
1
1
1
1
1
1
1
1
1
1
1
1
1
1
1
1
1
1
1
1
1
1
1
1
1
1
1
1
1
1
1
1
1
1
1
1
1
1
1
1
1
1
1
1
1
1
1
1
1
1
1
1
1
1
1
1
1
1
1
1
1
1
1
1
1
1
1
1
1
1
1
1
1
1
1
1
1
1
1
1
1
1
1
1
1
1
1
1
1
1
1
1
1
1
1
1
1
1
1
1
1
1
1
1
1
1
1
1
1
1
1
1
1
1
1
1
1
1
1
1
1
1
1
1
1
1
1
1
1
1
1
1
1
1
1
1
1
1
1
1
1
1
1
1
1
1
1
1
1
1
1
1
1
1
1
1
1
1
1
1
1
1
1
1
1
1
1
1
1
1
1
1
1
1
1
1
1
1
1
1
1
1
1
1
1
1
1
1
1
1
1
1
1
1
1
1
1
1
1
1
1
1
1
1
1
1
1
1
1
1
1
1
1
1
1
1
1
1
1
1
1
1
1
1
1
1
1
1
1
1
1
1
1
1
1
1
1
1
1
1
1
1
1
1
1
1
1
1
1
1
1
1
1
1
1
1
1
1
1
1
1
1
1
1
1
1
1
1
1
1
1
1
1
1
1
1
1
1
1
1
1
1
1
1
1
1
1
1
1
1
1
1
1
1
1
1
1
1
1
1
1
1
1
1
1
1
1
1
1
1
1
1
1
1
1
1
1
1
1
1
1
1
1
1
1
1
1
1
1
1
1
1
1
1
1
1
1
1
1
1
1
1
1
1
1
1
1
1
1
1
1
1
1
1
1
1
1
1
1
1
1
1
1
1
1
1
1
1
1
1
1
1
1
1
1
1
1
1
1
1
1
1
1
1
1
1
1
1
1
1
1
1
1
1
1
1
1
1
1
1
1
1
1
1
1
1
1
1
1
1
1
1
1
1
1
1
1
1
1
1
1
1
1
1
1
1
1
1
1
1
1
1
1
1
1
1
1
1
1
1
1
1
1
1
1
1
1
1
1
1
1
1
1
1
1
1
1
1
1
1
1
1
1
1
1
1
1
1
1
1
1
1
1
1
1
1
1
1
1
1
1
1
1
1
1
1
1
1
1
1
1
1
1
1
1
1
1
1
1
1
1
1
1
1
1
1
1
1
1
1
1
1
1
1
1
1
1
1
1
1
1
1
1
1
1
1
1
1
1
1
1
1
1
1
1
1
1
1
1
1
1
1
1
1
1
1
1
1
1
1
1
1
1
1
1
1
1
1
1
1
1
1
1
1
1
1
1
1
1
1
1
1
1
1
1
1
1
1
1
1
1
1
1
1
1
1
1
1
1
1
1
1
1
1
1
1
1
1
1
1
1
1
1
1
1
1
1
1
1
1
1
1
1
1
1
1
1
1
1
1
1
1
1
1
1
1
1
1
1
1
1
1
1
1
1
1
1
1
1
1
1
1
1
1
1
1
1
1
1
1
1
1
1
1
1
1
1
1
1
1
1
1
1
1
1
1
1
1
1
1
1
1
1
1
1
1
1
1
1
1
1
1
1
1
1
1
1
1
1
1
1
1
1
1
1
1
1
1
1
1
1
1
1
1
1
1
1
1
1
1
1
1
1
1
1
1
1
1
1
1
1
1
1
1
1
1
1
1
1
1
1
1
1
1
1
1
1
1
1
1
1
1
1
1
1
1
1
1
1
1
1
1
1
1
1
1
1
1
1
1
1
1
1
1
1
1
1
1
1
1
1
1
1
1
1
1
1
1
1
1
1
1
1
1
1
1
1
1
1
1
1
1
1
1
1
1
1
1
1
1
1
1
1
1
1
1
1
1
1
1
1
1
1
1
1
1
1
1
1
1
1
1
1
1
1
1
1
1
1
1
1
1
1
1
1
1
1
1
1
1
1
1
1
1
1
1
1
1
1
1
1
1
1
1
1
1
1
1
1
1
1
1
1
1
1
1
1
1
1
1
1
1
1
1
1
1
1
1
1
1
1
1
1
1
1
1
1
1
1
1
1
1
1
1
1
1
1
1
1
1
1
1
1
1
1
1
1
1
1
1
1
1
1
1
1
1
1
1
1
1
1
1
1
1
1
1
1
1
1
1
1
1
1
1
1
1
1
1
1
1
1
1
1
1
1
1
1
1
1
1
1
1
1
1
1
1
1
1
1
1
1
1
1
1
1
1
1
1
1
1
1
1
1
1
1
1
1
1
1
1
1
1
1
1
1
1
1
1
1
1
1
1
1
1
1
1
1
1
1
1
1
1
1
1
1
1
1
1
1
1
1
1
1
1
1
1
1
1
1
1
1
1
1
1
1
1
1
1
1
1
1
1
1
1
1
1
1
1
1
1
1
1
1
1
1
1
1
1
1
1
1
1
1
1
1
1
1
1
1
1
1
1
1
1
1
1
1
1
1
1
1
1
1
1
1
1
1
1
1
1
1
1
1
1
1
1
1
1
1
1
1
1
1
1
1
1
1
1
1
1
1
1
1
1
1
1
1
1
1
1
1
1
1
1
1
1
1
1
1
1
1
1
1
1
1
1
1
1
1
1
1
1
1
1
1
1
1
1
1
1
1
1
1
1
1
1
1
1
1
1
1
1
1
1
1
1
1
1
1
1
1
1
1
1
1
1
1
1
1
1
1
1
1
1
1
1
1
1
1
1
1
1
1
1
1
1
1
1
1
1
1
1
1
1
1
1
1
1
1
1
1
1
1
1
1
1
1
1
1
1
1
1
1
1
1
1
1
1
1
1
1
1
1
1
1
1
1
1
1
1
1
1
1
1
1
1
1
1
1
1
1
1
1
1
1
1
1
1
1
1
1
1
1
1
1
1
1
1
1
1
1
1
1
1
1
1
1
1
1
1
1
1
1
1
1
1
1
1
1
1
1
1
1
1
1
1
1
1
1
1
1
1
1
1
1
1
1
1
1
1
1
1
1
1
1
1
1
1
1
1
1
1
1
1
1
1
1
1
1
1
1
1
1
1
1
1
1
1
1
1
1
1
1
1
1
1
1
1
1
1
1
1
1
1
1
1
1
1
1
1
1
1
1
1
1
1
1
1
1
1
1
1
1
1
1
1
1
1
1
1
1
1
1
1
1
1
1
1
1
1
1
1
1
1
1
1
1
1
1
1
1
1
1
1
1
1
1
1
1
1
1
1
1
1
1
1
1
1
1
1
1
1
1
1
1
1
1
1
1
1
1
1
1
1
1
1
1
1
1
1
1
1
1
1
1
1
1
1
1
1
1
1
1
1
1
1
1
1
1
1
1
1
1
1
1
1
1
1
1
1
1
1
1
1
1
1
1
1
1
1
1
1
1
1
1
1
1
1
1
1
1
1
1
1
1
1
1
1
1
1
1
1
1
1
1
1
1
1
1
1
1
1
1
1
1
1
1
1
1
1
1
1
1
1
1
1
1
1
1
1
1
1
1
1
1
1
1
1
1
1
1
1
1
1
1
1
1
1
1
1
1
1
1
1
1
1
1
1
1
1
1
1
1
1
1
1
1
1
1
1
1
1
1.07427
1.17175
1.2588
1.34752
1.42175
1.47253
1.51315
1.53449
1.52914
1.50903
1.47225
1.43809
1.42073
1.40775
1.39791
1.39809
1.40197
1.40681
1.41002
1.41273
1.415
1.4161
1.41595
1.41577
1.41606
1.41709
1.41797
1.41831
1.41837
1.41827
1.41826
1.41835
1.41859
1.41904
1.41928
1.41929
1.41945
1.42019
1.42099
1.4215
1.42162
1.42156
1.4214
1.42106
1.42082
1.4208
1.42091
1.42113
1.42137
1.42154
1.42154
1.42153
1.4215
1.42138
1.42127
1.42129
1.42136
1.4215
1.42176
1.42201
1.42211
1.42211
1.42209
1.42198
1.42178
1.42165
1.42165
1.4217
1.42181
1.42204
1.42231
1.42248
1.42249
1.42246
1.42233
1.42207
1.42167
1.42119
1.42058
1.41871
1.00217
1.01219
1.04272
1.08242
1.14783
1.21316
1.27293
1.32738
1.37169
1.39665
1.41563
1.43739
1.4378
1.43242
1.42673
1.42208
1.41867
1.41575
1.41308
1.41316
1.4141
1.41624
1.41778
1.41846
1.4188
1.41903
1.41932
1.41968
1.42037
1.42064
1.42074
1.4207
1.42032
1.42014
1.42016
1.42023
1.42052
1.42098
1.42126
1.42144
1.42151
1.42144
1.42138
1.42132
1.42123
1.42123
1.42133
1.42153
1.42182
1.42202
1.42203
1.42202
1.42196
1.42181
1.42174
1.42176
1.42181
1.42195
1.42219
1.4224
1.42245
1.42244
1.4224
1.42228
1.42209
1.42198
1.42198
1.42203
1.42214
1.42235
1.42259
1.42269
1.42269
1.42265
1.42251
1.42223
1.42182
1.42131
1.42062
1.41865
0.999999
1.00002
1.00028
1.00126
1.00607
1.02068
1.05933
1.12936
1.23832
1.35766
1.41829
1.46717
1.46999
1.46721
1.45866
1.44685
1.42814
1.41916
1.41773
1.41806
1.41977
1.42248
1.42318
1.42297
1.42273
1.4227
1.42317
1.42434
1.42584
1.42626
1.42621
1.42604
1.42536
1.42458
1.42431
1.42423
1.42425
1.42418
1.42396
1.42397
1.42396
1.4239
1.42388
1.42385
1.42367
1.42353
1.42351
1.42358
1.4238
1.42394
1.42396
1.42392
1.42377
1.42349
1.42336
1.42336
1.42338
1.42344
1.42358
1.42373
1.42373
1.42368
1.42359
1.42343
1.42319
1.42303
1.42302
1.42305
1.42313
1.42328
1.42342
1.42344
1.42342
1.42335
1.42319
1.42289
1.42246
1.42191
1.42118
1.41913
1
1
1
1
1
1.00006
1.00056
1.00375
1.02263
1.09927
1.21933
1.34497
1.41292
1.44686
1.44768
1.4415
1.44374
1.44409
1.44256
1.43712
1.43445
1.43079
1.42747
1.4249
1.42527
1.4269
1.42896
1.43086
1.4322
1.43227
1.43205
1.43185
1.43132
1.43064
1.4303
1.43003
1.42973
1.42938
1.42907
1.42902
1.42903
1.4289
1.42873
1.4286
1.42821
1.42781
1.42767
1.42768
1.42779
1.42784
1.42781
1.42764
1.42729
1.42681
1.42658
1.42656
1.4265
1.42646
1.42648
1.42651
1.42642
1.42623
1.42604
1.42582
1.42556
1.42537
1.42529
1.42525
1.42524
1.4253
1.42531
1.42522
1.4251
1.42493
1.42467
1.42432
1.42387
1.42326
1.42247
1.42032
1
1
1
1
1
1
1
1
1.00006
1.00134
1.01434
1.06349
1.18457
1.29996
1.40239
1.43965
1.45842
1.46326
1.46117
1.45576
1.44428
1.43458
1.42842
1.42808
1.42896
1.43075
1.43314
1.43382
1.43402
1.43391
1.43379
1.43395
1.43435
1.43475
1.43472
1.43448
1.43417
1.4341
1.43404
1.43398
1.43395
1.43372
1.43333
1.4331
1.4327
1.43231
1.43222
1.43228
1.43234
1.43233
1.43224
1.43192
1.4314
1.43081
1.43052
1.43048
1.4304
1.43028
1.43022
1.43016
1.42994
1.42964
1.4294
1.42914
1.42885
1.42865
1.42847
1.42831
1.42823
1.42822
1.42812
1.42793
1.42772
1.42744
1.42706
1.42663
1.42611
1.42541
1.42452
1.42223
1
1
1
1
1
1
1
1
1
0.999999
1.00002
1.00049
1.0082
1.04592
1.1397
1.27178
1.36743
1.4375
1.44249
1.44473
1.4484
1.44385
1.43685
1.43584
1.43505
1.43486
1.43497
1.43449
1.43397
1.43381
1.43365
1.43371
1.43432
1.43564
1.4358
1.43559
1.43543
1.43551
1.43589
1.43602
1.43597
1.4358
1.43532
1.43503
1.43477
1.43467
1.43478
1.43507
1.43517
1.43516
1.43503
1.43468
1.43415
1.4337
1.43353
1.43354
1.43351
1.43343
1.43334
1.43325
1.43302
1.43272
1.43252
1.43229
1.43204
1.43184
1.43161
1.43141
1.43134
1.43128
1.43112
1.43089
1.43062
1.43026
1.42979
1.4293
1.42873
1.42796
1.42701
1.42459
1
1
1
1
1
1
1
1
1
1
1
0.999999
1.00001
1.00031
1.00372
1.03553
1.11296
1.236
1.33564
1.40989
1.44272
1.44949
1.44822
1.44534
1.44097
1.43745
1.43578
1.4348
1.43424
1.43357
1.43328
1.43322
1.43372
1.43521
1.43592
1.43587
1.43566
1.43563
1.43591
1.43606
1.43607
1.43604
1.43573
1.43545
1.43525
1.4352
1.43533
1.43578
1.436
1.43599
1.43585
1.43553
1.4351
1.43484
1.43481
1.43484
1.4349
1.43495
1.43494
1.43492
1.43475
1.43452
1.43439
1.43424
1.43411
1.43399
1.43381
1.43368
1.43367
1.43364
1.43351
1.4333
1.43303
1.43264
1.43217
1.4317
1.43112
1.43033
1.42933
1.42685
1
1
1
1
1
1
1
1
1
1
1
1
1
1
1
1.00021
1.0025
1.021
1.09768
1.20454
1.31265
1.37817
1.4258
1.43883
1.43967
1.4399
1.43945
1.43761
1.43616
1.43553
1.43522
1.43492
1.43432
1.43416
1.43517
1.43595
1.43588
1.43581
1.43576
1.43582
1.43588
1.43579
1.43548
1.43514
1.43493
1.4349
1.43511
1.43572
1.43602
1.436
1.43587
1.43559
1.43524
1.43513
1.43513
1.43517
1.43529
1.43543
1.4355
1.43552
1.43541
1.43526
1.4352
1.43513
1.43508
1.43501
1.43492
1.43491
1.43493
1.43495
1.4349
1.43476
1.43453
1.43419
1.4338
1.43338
1.43284
1.43208
1.43111
1.42864
1
1
1
1
1
1
1
1
1
1
1
1
1
1
1
1
0.999999
1.00009
1.00212
1.01412
1.07802
1.1872
1.30347
1.36241
1.40512
1.42988
1.43466
1.43488
1.4341
1.43459
1.43386
1.43285
1.43287
1.43298
1.43369
1.43464
1.43527
1.43578
1.43599
1.43596
1.43579
1.43544
1.43517
1.43501
1.43487
1.43489
1.43505
1.4356
1.43582
1.43581
1.43572
1.4354
1.43514
1.4351
1.43513
1.43521
1.4354
1.43554
1.43561
1.43561
1.43549
1.43542
1.43539
1.43536
1.43535
1.4353
1.43524
1.43525
1.43535
1.43546
1.43545
1.43537
1.4352
1.43492
1.4346
1.43424
1.43374
1.43301
1.43207
1.42972
1
1
1
1
1
1
1
1
1
1
1
1
1
1
1
1
1
1
1
1.00004
1.00159
1.01288
1.06195
1.17266
1.28089
1.36493
1.39579
1.41224
1.41719
1.42372
1.42672
1.42744
1.42842
1.42871
1.42887
1.42954
1.43086
1.43214
1.43304
1.43356
1.43356
1.4334
1.43331
1.43329
1.43335
1.43358
1.43409
1.43483
1.43503
1.43506
1.43503
1.43486
1.43474
1.43475
1.43483
1.43497
1.43513
1.43528
1.43537
1.43532
1.43524
1.43524
1.43522
1.43524
1.43525
1.43521
1.4352
1.43523
1.43539
1.43549
1.4355
1.43548
1.43535
1.43511
1.43485
1.43454
1.43408
1.43338
1.43248
1.43021
1
1
1
1
1
1
1
1
1
1
1
1
1
1
1
1
1
1
1
1
1
1.00004
1.00096
1.01229
1.05118
1.15542
1.27326
1.3726
1.40167
1.41156
1.42016
1.42069
1.42326
1.42371
1.42329
1.42345
1.42412
1.42531
1.42707
1.42849
1.429
1.42947
1.42979
1.43001
1.43033
1.43088
1.43169
1.43244
1.43276
1.4329
1.43298
1.43297
1.43299
1.43313
1.43349
1.43389
1.43421
1.43449
1.43464
1.43461
1.43463
1.4347
1.4347
1.43465
1.43468
1.43475
1.43483
1.43502
1.43524
1.43535
1.43542
1.43541
1.43525
1.43499
1.43478
1.4345
1.43407
1.43341
1.43256
1.43036
1
1
1
1
1
1
1
1
1
1
1
1
1
1
1
1
1
1
1
1
1
1
1
1.00005
1.00071
1.01046
1.05368
1.15434
1.26779
1.35756
1.40505
1.41617
1.42436
1.42464
1.42268
1.42297
1.4226
1.42248
1.42352
1.42502
1.42566
1.42628
1.42673
1.42694
1.4272
1.42778
1.42863
1.4294
1.42975
1.42994
1.43008
1.43012
1.43022
1.43059
1.43117
1.43179
1.43231
1.43272
1.43293
1.43298
1.43308
1.43327
1.43339
1.43349
1.43368
1.43387
1.43407
1.43438
1.4347
1.43489
1.43502
1.43502
1.43489
1.43468
1.43452
1.43429
1.4339
1.43326
1.43242
1.43026
1
1
1
1
1
1
1
1
1
1
1
1
1
1
1
1
1
1
1
1
1
1
1
1
1
1.00005
1.00087
1.00937
1.05836
1.14946
1.26491
1.35287
1.40557
1.41771
1.42345
1.42655
1.4267
1.42584
1.42597
1.42588
1.42608
1.42639
1.42637
1.4262
1.42613
1.42642
1.42711
1.42759
1.42765
1.42767
1.42767
1.42765
1.42776
1.42815
1.42875
1.42943
1.43003
1.43048
1.43074
1.43083
1.43098
1.43123
1.43144
1.43166
1.432
1.43233
1.43265
1.43306
1.43349
1.43383
1.43416
1.43428
1.43419
1.43399
1.43389
1.43373
1.43337
1.43275
1.43195
1.42984
1
1
1
1
1
1
1
1
1
1
1
1
1
1
1
1
1
1
1
1
1
1
1
1
1
1
1
1.00004
1.00111
1.00903
1.06111
1.16168
1.27305
1.34725
1.40008
1.41743
1.42215
1.42496
1.4264
1.42567
1.42568
1.42595
1.42585
1.42552
1.42563
1.42614
1.4267
1.42691
1.42683
1.42663
1.42649
1.4264
1.42645
1.42662
1.42708
1.42776
1.42839
1.42875
1.42889
1.42898
1.42912
1.4293
1.42944
1.42963
1.43002
1.43041
1.43078
1.43125
1.43172
1.43218
1.43271
1.43304
1.43308
1.43304
1.43295
1.43278
1.43247
1.43189
1.43111
1.42904
1
1
1
1
1
1
1
1
1
1
1
1
1
1
1
1
1
1
1
1
1
1
1
1
1
1
1
1
1
1.00004
1.00147
1.01127
1.0653
1.18142
1.2988
1.35732
1.39084
1.40895
1.41779
1.42003
1.42049
1.42158
1.42212
1.42228
1.42274
1.42375
1.42493
1.42551
1.42538
1.42499
1.42473
1.42471
1.42477
1.42496
1.42544
1.42617
1.42679
1.4271
1.42721
1.42733
1.4275
1.42766
1.42776
1.42791
1.42826
1.42865
1.42899
1.42939
1.4298
1.43031
1.43092
1.43136
1.43152
1.43163
1.43162
1.43152
1.43125
1.43072
1.42993
1.42791
1
1
1
1
1
1
1
1
1
1
1
1
1
1
1
1
1
1
1
1
1
1
1
1
1
1
1
1
1
1
1
1.00007
1.002
1.01798
1.07777
1.19771
1.31721
1.38463
1.40114
1.41227
1.41402
1.41682
1.4174
1.41755
1.41822
1.41959
1.42147
1.42293
1.42336
1.42326
1.42303
1.42303
1.42316
1.42353
1.42409
1.42467
1.42527
1.42558
1.42566
1.42579
1.42598
1.4261
1.42616
1.4263
1.42664
1.42698
1.42728
1.42758
1.42793
1.42843
1.42903
1.42949
1.42968
1.42985
1.42994
1.42987
1.42965
1.4292
1.42849
1.42659
1
1
1
1
1
1
1
1
1
1
1
1
1
1
1
1
1
1
1
1
1
1
1
1
1
1
1
1
1
1
1
1
1
1.00015
1.00264
1.02658
1.0994
1.22588
1.33602
1.39701
1.41389
1.41953
1.42101
1.41976
1.41962
1.42053
1.42169
1.42244
1.42244
1.42229
1.4221
1.42206
1.42214
1.42249
1.42298
1.42347
1.42414
1.42451
1.42459
1.42471
1.42485
1.42484
1.42482
1.425
1.42537
1.42564
1.42586
1.4261
1.42643
1.42686
1.42733
1.42767
1.42782
1.42799
1.42811
1.42805
1.42788
1.42747
1.42683
1.42505
1
1
1
1
1
1
1
1
1
1
1
1
1
1
1
1
1
1
1
1
1
1
1
1
1
1
1
1
1
1
1
1
1
1
1.00001
1.00037
1.00451
1.04111
1.13215
1.25895
1.35543
1.40365
1.42099
1.42273
1.42401
1.42482
1.42504
1.42493
1.42437
1.42364
1.4232
1.42296
1.42292
1.42298
1.42322
1.42347
1.42375
1.42381
1.42383
1.42388
1.42381
1.4237
1.42378
1.42409
1.42442
1.42465
1.4248
1.42501
1.42536
1.42573
1.42601
1.42613
1.42617
1.42628
1.42639
1.42633
1.42617
1.42578
1.4252
1.42349
1
1
1
1
1
1
1
1
1
1
1
1
1
1
1
1
1
1
1
1
1
1
1
1
1
1
1
1
1
1
1
1
1
1
1
1
1.00002
1.00089
1.00884
1.06615
1.18303
1.29768
1.36766
1.40216
1.4186
1.42214
1.42223
1.4233
1.42349
1.42313
1.4228
1.42272
1.42277
1.42285
1.42303
1.4232
1.42342
1.42342
1.42342
1.42342
1.42313
1.42286
1.42296
1.4232
1.42348
1.42372
1.42392
1.42419
1.42457
1.42496
1.42503
1.42496
1.42485
1.42491
1.425
1.42493
1.42474
1.42434
1.42377
1.42203
1
1
1
1
1
1
1
1
1
1
1
1
1
1
1
1
1
1
1
1
1
1
1
1
1
1
1
1
1
1
1
1
1
1
1
1
1
1
1.00007
1.00245
1.01946
1.09885
1.2356
1.34866
1.38909
1.40458
1.4116
1.418
1.41915
1.41934
1.41961
1.41998
1.42056
1.42142
1.42221
1.42278
1.42298
1.42299
1.42298
1.4229
1.42257
1.42232
1.42238
1.4225
1.42266
1.4229
1.42315
1.42347
1.42385
1.42417
1.42419
1.424
1.42382
1.42387
1.42396
1.42388
1.42363
1.42319
1.4226
1.42074
1
1
1
1
1
1
1
1
1
1
1
1
1
1
1
1
1
1
1
1
1
1
1
1
1
1
1
1
1
1
1
1
1
1
1
1
1
1
1
1.00001
1.00026
1.00621
1.0437
1.15437
1.28688
1.37986
1.41146
1.42009
1.41964
1.41893
1.41908
1.41932
1.41998
1.42084
1.42166
1.42217
1.42236
1.4225
1.42251
1.42248
1.42236
1.42225
1.42218
1.42218
1.42225
1.42239
1.42266
1.42302
1.42336
1.42354
1.4235
1.42322
1.42302
1.42305
1.42315
1.42306
1.42279
1.42231
1.42171
1.41973
1
1
1
1
1
1
1
1
1
1
1
1
1
1
1
1
1
1
1
1
1
1
1
1
1
1
1
1
1
1
1
1
1
1
1
1
1
1
1
1
1
1.00005
1.00112
1.01676
1.08491
1.21692
1.3391
1.40347
1.41962
1.42346
1.42418
1.42344
1.423
1.42316
1.42331
1.42324
1.42299
1.42274
1.42267
1.42266
1.42261
1.4226
1.42255
1.42242
1.42235
1.42242
1.42264
1.42287
1.42312
1.4232
1.42309
1.42277
1.42253
1.42253
1.42258
1.42249
1.42216
1.42166
1.42104
1.41891
1
1
1
1
1
1
1
1
1
1
1
1
1
1
1
1
1
1
1
1
1
1
1
1
1
1
1
1
1
1
1
1
1
1
1
1
1
1
1
1
1
1
1
1.00027
1.00402
1.04295
1.15612
1.28841
1.36709
1.40934
1.42179
1.42219
1.42229
1.42331
1.42381
1.42367
1.42333
1.42293
1.42275
1.42266
1.42264
1.4227
1.42273
1.42265
1.42253
1.42256
1.42272
1.42284
1.423
1.42307
1.42294
1.42267
1.42245
1.42238
1.42237
1.42228
1.42189
1.4213
1.42058
1.41824
1
1
1
1
1
1
1
1
1
1
1
1
1
1
1
1
1
1
1
1
1
1
1
1
1
1
1
1
1
1
1
1
1
1
1
1
1
1
1
1
1
1
1
1
1.00003
1.00146
1.01519
1.09597
1.24076
1.35851
1.39277
1.40882
1.41484
1.42001
1.42131
1.4214
1.42168
1.42185
1.42193
1.42199
1.42209
1.42216
1.42216
1.42221
1.42226
1.42241
1.42264
1.42276
1.42288
1.42296
1.42287
1.42276
1.42264
1.4225
1.42238
1.42222
1.42176
1.42116
1.42027
1.41774
1
1
1
1
1
1
1
1
1
1
1
1
1
1
1
1
1
1
1
1
1
1
1
1
1
1
1
1
1
1
1
1
1
1
1
1
1
1
1
1
1
1
1
1
1
1.00001
1.00024
1.00721
1.05165
1.17839
1.31678
1.39404
1.4153
1.42296
1.42299
1.42204
1.42211
1.42211
1.42206
1.42212
1.42208
1.42198
1.42177
1.42177
1.42184
1.42207
1.42248
1.4227
1.42279
1.42281
1.42276
1.4227
1.42267
1.42259
1.42238
1.4221
1.42158
1.42094
1.42004
1.41749
1
1
1
1
1
1
1
1
1
1
1
1
1
1
1
1
1
1
1
1
1
1
1
1
1
1
1
1
1
1
1
1
1
1
1
1
1
1
1
1
1
1
1
1
1
1
1
1.00009
1.00196
1.02764
1.12398
1.2695
1.37058
1.41611
1.4242
1.42537
1.42529
1.42501
1.42473
1.42439
1.4241
1.4234
1.42247
1.42195
1.42195
1.42209
1.42251
1.42279
1.42285
1.42279
1.42263
1.42263
1.42262
1.42262
1.42242
1.42202
1.42146
1.42073
1.41953
1.41862
1
1
1
1
1
1
1
1
1
1
1
1
1
1
1
1
1
1
1
1
1
1
1
1
1
1
1
1
1
1
1
1
1
1
1
1
1
1
1
1
1
1
1
1
1
1
1
1
1.00001
1.00079
1.0111
1.08795
1.23136
1.35265
1.3914
1.41221
1.41981
1.42008
1.42192
1.42424
1.42482
1.42456
1.42348
1.42252
1.42243
1.42256
1.42301
1.42332
1.4233
1.42306
1.4227
1.42262
1.42256
1.42257
1.42245
1.42205
1.42148
1.42053
1.41908
1.43022
1
1
1
1
1
1
1
1
1
1
1
1
1
1
1
1
1
1
1
1
1
1
1
1
1
1
1
1
1
1
1
1
1
1
1
1
1
1
1
1
1
1
1
1
1
1
1
1
1
1
1.00022
1.0061
1.05035
1.18381
1.33567
1.40105
1.41039
1.41129
1.41612
1.42045
1.42222
1.42274
1.42261
1.42218
1.42217
1.42242
1.42315
1.42355
1.42357
1.4234
1.42293
1.42265
1.42253
1.42253
1.42252
1.42216
1.42154
1.42046
1.41979
1.48658
1
1
1
1
1
1
1
1
1
1
1
1
1
1
1
1
1
1
1
1
1
1
1
1
1
1
1
1
1
1
1
1
1
1
1
1
1
1
1
1
1
1
1
1
1
1
1
1
1
1
1
1.00007
1.00252
1.03052
1.14855
1.30254
1.39157
1.41259
1.42386
1.42349
1.42258
1.42303
1.42291
1.42218
1.42183
1.42197
1.4228
1.42366
1.42384
1.42375
1.42323
1.42277
1.42257
1.42254
1.42263
1.42232
1.42151
1.42166
1.4323
1.6212
1
1
1
1
1
1
1
1
1
1
1
1
1
1
1
1
1
1
1
1
1
1
1
1
1
1
1
1
1
1
1
1
1
1
1
1
1
1
1
1
1
1
1
1
1
1
1
1
1
1
1
1
1.00003
1.00106
1.02116
1.11306
1.2632
1.37378
1.417
1.42378
1.4259
1.42618
1.42574
1.42389
1.42238
1.42237
1.42302
1.42402
1.42421
1.42412
1.4235
1.42289
1.42264
1.42254
1.42257
1.42232
1.42247
1.43639
1.52629
1.75571
1
1
1
1
1
1
1
1
1
1
1
1
1
1
1
1
1
1
1
1
1
1
1
1
1
1
1
1
1
1
1
1
1
1
1
1
1
1
1
1
1
1
1
1
1
1
1
1
1
1
1
1
1
1.00001
1.00067
1.01064
1.08929
1.25012
1.35615
1.39345
1.41826
1.4247
1.42467
1.42349
1.4221
1.42221
1.42321
1.42443
1.42462
1.42446
1.4237
1.42306
1.42276
1.42258
1.42262
1.42313
1.4371
1.54054
1.70629
1.81644
1
1
1
1
1
1
1
1
1
1
1
1
1
1
1
1
1
1
1
1
1
1
1
1
1
1
1
1
1
1
1
1
1
1
1
1
1
1
1
1
1
1
1
1
1
1
1
1
1
1
1
1
1
1
1
1.00027
1.00799
1.06422
1.21624
1.35784
1.41604
1.41884
1.42166
1.42174
1.42103
1.42146
1.42311
1.4246
1.42469
1.42441
1.42371
1.42318
1.42281
1.4227
1.42328
1.43914
1.54699
1.72533
1.82652
1.84313
1
1
1
1
1
1
1
1
1
1
1
1
1
1
1
1
1
1
1
1
1
1
1
1
1
1
1
1
1
1
1
1
1
1
1
1
1
1
1
1
1
1
1
1
1
1
1
1
1
1
1
1
1
1
1
1
1.00016
1.00442
1.05544
1.1982
1.33477
1.40662
1.42535
1.42411
1.42138
1.42208
1.42413
1.42524
1.42515
1.42455
1.42362
1.42304
1.42286
1.42341
1.43971
1.55566
1.7492
1.81689
1.85198
1.85113
1
1
1
1
1
1
1
1
1
1
1
1
1
1
1
1
1
1
1
1
1
1
1
1
1
1
1
1
1
1
1
1
1
1
1
1
1
1
1
1
1
1
1
1
1
1
1
1
1
1
1
1
1
1
1
1
1
1.0001
1.00357
1.04245
1.18814
1.34728
1.39812
1.40795
1.41468
1.42033
1.4247
1.42555
1.42527
1.42442
1.4232
1.4228
1.42328
1.44203
1.5646
1.74843
1.85716
1.85969
1.86225
1.85303
1
1
1
1
1
1
1
1
1
1
1
1
1
1
1
1
1
1
1
1
1
1
1
1
1
1
1
1
1
1
1
1
1
1
1
1
1
1
1
1
1
1
1
1
1
1
1
1
1
1
1
1
1
1
1
1
1
1
1.00006
1.0028
1.03937
1.17169
1.32431
1.39836
1.42202
1.42398
1.42571
1.4258
1.42493
1.42316
1.42235
1.42288
1.44359
1.57603
1.77426
1.8333
1.86546
1.86824
1.863
1.85221
1
1
1
1
1
1
1
1
1
1
1
1
1
1
1
1
1
1
1
1
1
1
1
1
1
1
1
1
1
1
1
1
1
1
1
1
1
1
1
1
1
1
1
1
1
1
1
1
1
1
1
1
1
1
1
1
1
1
1
1.00006
1.00206
1.034
1.16286
1.31835
1.38427
1.41502
1.42598
1.42582
1.42372
1.42139
1.4222
1.44799
1.59093
1.77294
1.87465
1.87204
1.86765
1.86545
1.86041
1.85036
1
1
1
1
1
1
1
1
1
1
1
1
1
1
1
1
1
1
1
1
1
1
1
1
1
1
1
1
1
1
1
1
1
1
1
1
1
1
1
1
1
1
1
1
1
1
1
1
1
1
1
1
1
1
1
1
1
1
1
1
1.00003
1.00223
1.02771
1.16013
1.32679
1.40815
1.42376
1.42167
1.41756
1.41954
1.45446
1.60336
1.80078
1.84494
1.87258
1.87058
1.86595
1.86097
1.85641
1.84788
1
1
1
1
1
1
1
1
1
1
1
1
1
1
1
1
1
1
1
1
1
1
1
1
1
1
1
1
1
1
1
1
1
1
1
1
1
1
1
1
1
1
1
1
1
1
1
1
1
1
1
1
1
1
1
1
1
1
1
1
1
1.00005
1.00147
1.03445
1.16445
1.32081
1.403
1.41721
1.43236
1.47735
1.62909
1.79575
1.87733
1.87278
1.8668
1.86061
1.85769
1.85516
1.85187
1.84422
1
1
1
1
1
1
1
1
1
1
1
1
1
1
1
1
1
1
1
1
1
1
1
1
1
1
1
1
1
1
1
1
1
1
1
1
1
1
1
1
1
1
1
1
1
1
1
1
1
1
1
1
1
1
1
1
1
1
1
1
1
1
1.00003
1.00246
1.03165
1.17124
1.32811
1.41225
1.51477
1.63456
1.76209
1.83213
1.86888
1.86571
1.85527
1.85014
1.84978
1.84991
1.84843
1.84128
1
1
1
1
1
1
1
1
1
1
1
1
1
1
1
1
1
1
1
1
1
1
1
1
1
1
1
1
1
1
1
1
1
1
1
1
1
1
1
1
1
1
1
1
1
1
1
1
1
1
1
1
1
1
1
1
1
1
1
1
1
1
1
1.00006
1.00214
1.03853
1.20066
1.45774
1.67423
1.84737
1.91226
1.89159
1.86732
1.8584
1.84645
1.84383
1.84427
1.8466
1.84751
1.84086
)
;

boundaryField
{
    inlet
    {
        type            fixedValue;
        value           uniform 1;
    }
    outlet
    {
        type            zeroGradient;
    }
    bottom
    {
        type            symmetryPlane;
    }
    top
    {
        type            symmetryPlane;
    }
    obstacle
    {
        type            zeroGradient;
    }
    defaultFaces
    {
        type            empty;
    }
}


// ************************************************************************* //
