/*--------------------------------*- C++ -*----------------------------------*\
| =========                 |                                                 |
| \\      /  F ield         | OpenFOAM: The Open Source CFD Toolbox           |
|  \\    /   O peration     | Version:  2206                                  |
|   \\  /    A nd           | Website:  www.openfoam.com                      |
|    \\/     M anipulation  |                                                 |
\*---------------------------------------------------------------------------*/
FoamFile
{
    version     2.0;
    format      ascii;
    arch        "LSB;label=32;scalar=64";
    class       volScalarField;
    location    "0.06";
    object      p;
}
// * * * * * * * * * * * * * * * * * * * * * * * * * * * * * * * * * * * * * //

dimensions      [1 -1 -2 0 0 0 0];

internalField   nonuniform List<scalar> 
4800
(
1
1
1
1
1
1
1
1
1
1
1
1
1
1
1
1
1
1
1
1
1
1
1
1
1
1
1
1
1
1
1
1
1
1
1
1
1
1
1
1
1
1
1
1
1
1
1
1
1
1
1
1
1
1
1
1
1
1
1
1
1
1
1
1
1
1
1
1
1
1
1
1
1
1
1
1
1
1
1
1
1
1
1
1
1
1
1
1
1
1
1
1
1
1
1
1
1
1
1
1
1
1
1
1
1
1
1
1
1
1
1
1
1
1
1
1
1
1
1
1
1
1
1
1
1
1
1
1
1
1
1
1
1
1
1
1
1
1
1
1
1
1
1
1
1
1
1
1
1
1
1
1
1
1
1
1
1
1
1
1
1
1
1
1
1
1
1
1
1
1
1
1
1
1
1
1
1
1
1
1
1
1
1
1
1
1
1
1
1
1
1
1
1
1
1
1
1
1
1
1
1
1
1
1
1
1
1
1
1
1
1
1
1
1
1
1
1
1
1
1
1
1
1
1
1
1
1
1
1
1
1
1
1
1
1
1
1
1
1
1
1
1
1
1
1
1
1
1
1
1
1
1
1
1
1
1
1
1
1
1
1
1
1
1
1
1
1
1
1
1
1
1
1
1
1
1
1
1
1
1
1
1
1
1
1
1
1
1
1
1
1
1
1
1
1
1
1
1
1
1
1
1
1
1
1
1
1
1
1
1
1
1
1
1
1
1
1
1
1
1
1
1
1
1
1
1
1
1
1
1
1
1
1
1
1
1
1
1
1
1
1
1
1
1
1
1
1
1
1
1
1
1
1
1
1
1
1
1
1
1
1
1
1
1
1
1
1
1
1
1
1
1
1
1
1
1
1
1
1
1
1
1
1
1
1
1
1
1
1
1
1
1
1
1
1
1
1
1
1
1
1
1
1
1
1
1
1
1
1
1
1
1
1
1
1
1
1
1
1
1
1
1
1
1
1
1
1
1
1
1
1
1
1
1
1
1
1
1
1
1
1
1
1
1
1
1
1
1
1
1
1
1
1
1
1
1
1
1
1
1
1
1
1
1
1
1
1
1
1
1
1
1
1
1
1
1
1
1
1
1
1
1
1
1
1
1
1
1
1
1
1
1
1
1
1
1
1
1
1
1
1
1
1
1
1
1
1
1
1
1
1
1
1
1
1
1
1
1
1
1
1
1
1
1
1
1
1
1
1
1
1
1
1
1
1
1
1
1
1
1
1
1
1
1
1
1
1
1
1
1
1
1
1
1
1
1
1
1
1
1
1
1
1
1
1
1
1
1
1
1
1
1
1
1
1
1
1
1
1
1
1
1
1
1
1
1
1
1
1
1
1
1
1
1
1
1
1
1
1
1
1
1
1
1
1
1
1
1
1
1
1
1
1
1
1
1
1
1
1
1
1
1
1
1
1
1
1
1
1
1
1
1
1
1
1
1
1
1
1
1
1
1
1
1
1
1
1
1
1
1
1
1
1
1
1
1
1
1
1
1
1
1
1
1
1
1
1
1
1
1
1
1
1
1
1
1
1
1
1
1
1
1
1
1
1
1
1
1
1
1
1
1
1
1
1
1
1
1
1
1
1
1
1
1
1
1
1
1
1
1
1
1
1
1
1
1
1
1
1
1
1
1
1
1
1
1
1
1
1
1
1
1
1
1
1
1
1
1
1
1
1
1
1
1
1
1
1
1
1
1
1
1
1
1
1
1
1
1
1
1
1
1
1
1
1
1
1
1
1
1
1
1
1
1
1
1
1
1
1
1
1
1
1
1
1
1
1
1
1
1
1
1
1
1
1
1
1
1
1
1
1
1
1
1
1
1
1
1
1
1
1
1
1
1
1
1
1
1
1
1
1
1
1
1
1
1
1
1
1
1
1
1
1
1
1
1
1
1
1
1
1
1
1
1
1
1
1
1
1
1
1
1
1
1
1
1
1
1
1
1
1
1
1
1
1
1
1
1
1
1
1
1
1
1
1
1
1
1
1
1
1
1
1
1
1
1
1
1
1
1
1
1
1
1
1
1
1
1
1
1
1
1
1
1
1
1
1
1
1
1
1
1
1
1
1
1
1
1
1
1
1
1
1
1
1
1
1
1
1
1
1
1
1
1
1
1
1
1
1
1
1
1
1
1
1
1
1
1
1
1
1
1
1
1
1
1
1
1
1
1
1
1
1
1
1
1
1
1
1
1
1
1
1
1
1
1
1
1
1
1
1
1
1
1
1
1
1
1
1
1
1
1
1
1
1
1
1
1
1
1
1
1
1
1
1
1
1
1
1
1
1
1
1
1
1
1
1
1
1
1
1
1
1
1
1
1
1
1
1
1
1
1
1
1
1
1
1
1
1
1
1
1
1
1
1
1
1
1
1
1
1
1
1
1
1
1
1
1
1
1
1
1
1
1
1
1
1
1
1
1
1
1
1
1
1
1
1
1
1
1
1
1
1
1
1
1
1
1
1
1
1
1
1
1
1
1
1
1
1
1
1
1
1
1
1
1
1
1
1
1
1
1
1
1
1
1
1
1
1
1
1
1
1
1
1
1
1
1
1
1
1
1
1
1
1
1
1
1
1
1
1
1
1
1
1
1
1
1
1
1
1
1
1
1
1
1
1
1
1
1
1
1
1
1
1
1
1
1
1
1
1
1
1
1
1
1
1
1
1
1
1
1
1
1
1
1
1
1
1
1
1
1
1
1
1
1
1
1
1
1
1
1
1
1
1
1
1
1
1
1
1
1
1
1
1
1
1
1
1
1
1
1
1
1
1
1
1
1
1
1
1
1
1
1
1
1
1
1
1
1
1
1
1
1
1
1
1
1
1
1
1
1
1
1
1
1
1
1
1
1
1
1
1
1
1
1
1
1
1
1
1
1
1
1
1
1
1
1
1
1
1
1
1
1
1
1
1
1
1
1
1
1
1
1
1
1
1
1
1
1
1
1
1
1
1
1
1
1
1
1
1
1
1
1
1
1
1
1
1
1
1
1
1
1
1
1
1
1
1
1
1
1
1
1
1
1
1
1
1
1
1
1
1
1
1
1
1
1
1
1
1
1
1
1
1
1
1
1
1
1
1
1
1
1
1
1
1
1
1
1
1
1
1
1
1
1
1
1
1
1
1
1
1
1
1
1
1
1
1
1
1
1
1
1
1
1
1
1
1
1
1
1
1
1
1
1
1
1
1
1
1
1
1
1
1
1
1
1
1
1
1
1
1
1
1
1
1
1
1
1
1
1
1
1
1
1
1
1
1
1
1
1
1
1
1
1
1
1
1
1
1
1
1
1
1
1
1
1
1
1
1
1
1
1
1
1
1
1
1
1
1
1
1
1
1
1
1
1
1
1
1
1
1
1
1
1
1
1
1
1
1
1
1
1
1
1
1
1
1
1
1
1
1
1
1
1
1
1
1
1
1
1
1
1
1
1
1
1
1
1
1
1
1
1
1
1
1
1
1
1
1
1
1
1
1
1
1
1
1
1
1
1
1
1
1
1
1
1
1
1
1
1
1
1
1
1
1
1
1
1
1
1
1
1
1
1
1
1
1
1
1
1
1
1
1
1
1
1
1
1
1
1
1
1
1
1
1
1
1
1
1
1
1
1
1
1
1
1
1
1
1.26724
1.69147
2.17512
2.72701
3.34704
3.82408
4.22519
4.87014
5.27962
5.35465
5.5191
5.51335
5.40429
5.12674
4.6836
4.22457
4.03473
3.9154
3.81108
3.73535
3.72645
3.73965
3.76434
3.80617
3.85304
3.89616
3.9305
3.96005
3.9779
3.97617
3.96991
3.97127
3.98116
3.98725
3.9865
3.98198
3.97224
3.96446
3.95787
3.95487
3.9539
3.94945
3.93458
3.90584
3.87119
3.84605
3.82785
3.8059
3.77814
3.75967
3.74871
3.74216
3.73968
3.73838
3.73704
3.73587
3.73442
3.7316
3.73822
3.74795
3.73951
3.7304
3.72653
3.72805
3.74049
3.74654
3.74629
3.74656
3.74754
3.74786
3.74864
3.75296
3.7585
3.76107
3.76194
3.76323
3.76752
3.7795
3.8042
3.86012
0.999601
1.0041
1.03351
1.0809
1.18771
1.41951
1.68055
1.96202
2.41944
2.8174
3.22653
3.59345
3.90764
3.97536
4.05581
4.2216
4.29742
4.25572
4.15793
4.12015
4.06965
3.98321
3.923
3.90474
3.88114
3.86958
3.8776
3.9038
3.93291
3.93911
3.94338
3.95332
3.96857
3.97929
3.98143
3.98113
3.98266
3.98258
3.97789
3.96983
3.96218
3.94882
3.92261
3.88581
3.84767
3.82146
3.80585
3.78966
3.77027
3.75505
3.74455
3.73924
3.73708
3.73562
3.7335
3.72977
3.72427
3.71991
3.72384
3.73273
3.72835
3.72198
3.71972
3.7228
3.73589
3.74132
3.7422
3.74364
3.74565
3.74742
3.74926
3.75286
3.7568
3.7593
3.76117
3.76378
3.76979
3.78428
3.81249
3.86747
1
1
1
1
1
0.999681
1.00293
1.01433
1.07102
1.20695
1.44925
1.90407
2.54068
3.37495
3.91163
4.34808
4.58654
4.56732
4.50246
4.42231
4.33752
4.21587
4.0353
3.94194
3.88251
3.8696
3.87701
3.89198
3.91867
3.92245
3.91666
3.91676
3.92624
3.94444
3.96642
3.98478
3.99575
3.99932
3.99905
3.98993
3.97147
3.95083
3.92124
3.8797
3.83691
3.80286
3.78881
3.77965
3.76874
3.75761
3.74865
3.74287
3.73977
3.73776
3.73496
3.73038
3.72513
3.72352
3.72799
3.73519
3.73499
3.72951
3.72652
3.72984
3.7401
3.74053
3.74088
3.74343
3.74593
3.74834
3.75105
3.75309
3.75407
3.75601
3.75931
3.76336
3.77135
3.78687
3.81631
3.87193
1
1
1
1
1
1
1
1
1
0.999913
0.99992
1.01203
1.07756
1.30813
1.84841
2.50296
3.33879
3.72808
4.04955
4.1727
4.12882
4.1229
4.18323
4.19065
4.14309
4.06807
4.02836
3.99152
3.95564
3.89619
3.85988
3.85917
3.86791
3.90013
3.94017
3.97796
4.00807
4.01401
4.0134
4.00198
3.97555
3.94227
3.90517
3.87319
3.83805
3.79665
3.77728
3.76744
3.76132
3.75545
3.75062
3.74661
3.74323
3.74049
3.73725
3.73239
3.7274
3.72621
3.72571
3.73153
3.73607
3.73162
3.72779
3.73137
3.74277
3.7398
3.73876
3.74244
3.74573
3.74758
3.75011
3.75271
3.75464
3.75636
3.75915
3.76542
3.77568
3.79212
3.8223
3.87658
1
1
1
1
1
1
1
1
1
1
1
1
1
0.999756
1.01103
1.0743
1.30398
1.84813
2.46392
3.22702
3.66493
4.01938
4.29252
4.2905
4.28663
4.24933
4.18763
4.0969
3.99011
3.9222
3.89391
3.88816
3.89301
3.90671
3.92821
3.9524
3.97544
3.98527
3.98587
3.97792
3.96419
3.94194
3.91484
3.88745
3.8487
3.79907
3.77684
3.76434
3.75394
3.74833
3.74529
3.74383
3.74231
3.74182
3.73895
3.72993
3.72288
3.72242
3.7263
3.73512
3.73689
3.7289
3.72295
3.728
3.73986
3.73651
3.73544
3.74087
3.74597
3.74874
3.75122
3.75386
3.75651
3.75909
3.76302
3.76939
3.77885
3.79565
3.82679
3.87992
1
1
1
1
1
1
1
1
1
1
1
1
1
0.999999
1
0.999978
0.999937
1.01344
1.07316
1.30903
1.86743
2.48362
3.18279
3.5571
3.87624
4.01893
4.04481
4.03918
4.06787
4.06795
4.04074
4.02197
3.99692
3.96524
3.92468
3.90193
3.90512
3.91822
3.93754
3.9502
3.94928
3.94085
3.92474
3.89908
3.86026
3.81695
3.78678
3.76708
3.75717
3.75248
3.7489
3.74557
3.74246
3.74274
3.73939
3.73138
3.72468
3.72116
3.72489
3.73331
3.73338
3.72848
3.72736
3.73499
3.74161
3.73786
3.73559
3.73985
3.74468
3.74728
3.7495
3.75224
3.75514
3.75868
3.76409
3.77096
3.78109
3.79936
3.83178
3.88338
1
1
1
1
1
1
1
1
1
1
1
1
1
1
1
1
0.999999
1
0.999926
1.00033
1.01665
1.08764
1.33962
1.87873
2.53937
3.14097
3.61447
3.92337
4.0731
4.14331
4.14065
4.12005
4.07528
3.9866
3.91447
3.89413
3.89946
3.91478
3.93641
3.94327
3.9307
3.91529
3.90201
3.87832
3.84759
3.81977
3.79819
3.77444
3.75962
3.75494
3.74982
3.74435
3.73689
3.73007
3.72308
3.71917
3.71632
3.71413
3.72155
3.73162
3.72591
3.72112
3.7222
3.73693
3.73893
3.73377
3.73492
3.73878
3.74311
3.74545
3.74729
3.75035
3.75356
3.75662
3.7612
3.76781
3.77991
3.80118
3.83693
3.88731
1
1
1
1
1
1
1
1
1
1
1
1
1
1
1
1
1
1
0.999999
0.999998
1
0.999935
1.00097
1.02008
1.10088
1.42146
1.94085
2.62249
3.13252
3.62167
3.87252
3.94157
3.9802
3.99225
3.97037
3.96066
3.97017
3.97659
3.97179
3.9572
3.92097
3.88105
3.85289
3.83557
3.82094
3.80617
3.79509
3.78192
3.77045
3.75421
3.73718
3.72698
3.71647
3.70832
3.71247
3.72125
3.72026
3.7178
3.7181
3.72554
3.72661
3.72415
3.72916
3.73685
3.72733
3.72297
3.72855
3.73448
3.73933
3.74256
3.74541
3.74849
3.7511
3.75419
3.75931
3.76774
3.78137
3.80525
3.84391
3.89093
1
1
1
1
1
1
1
1
1
1
1
1
1
1
1
1
1
1
1
1
1
0.999999
0.999996
1.00001
0.999964
1.00292
1.02332
1.15744
1.50047
2.0411
2.74956
3.2811
3.81562
3.94505
3.98631
4.0276
4.03351
4.01882
3.991
3.95035
3.90158
3.85307
3.83639
3.82256
3.79557
3.77962
3.77182
3.76499
3.75527
3.74283
3.73097
3.72077
3.71304
3.71069
3.71838
3.72784
3.73065
3.72654
3.72232
3.71732
3.71504
3.7168
3.73035
3.73122
3.72328
3.72428
3.73258
3.74016
3.74356
3.74513
3.7459
3.74674
3.75091
3.75734
3.76476
3.77343
3.78735
3.81332
3.85411
3.89547
1
1
1
1
1
1
1
1
1
1
1
1
1
1
1
1
1
1
1
1
1
1
1
1
0.999999
1
0.999977
1.00018
1.00556
1.03802
1.25234
1.66747
2.27821
2.88761
3.37552
3.8106
3.87777
3.91628
3.97064
3.96584
3.94481
3.91588
3.89187
3.85913
3.80771
3.75442
3.73469
3.72642
3.71862
3.72144
3.73212
3.73574
3.73328
3.73118
3.72955
3.73056
3.73385
3.72411
3.71217
3.70538
3.70503
3.71319
3.72915
3.72923
3.72314
3.72637
3.73207
3.73911
3.74611
3.75059
3.75174
3.75212
3.75423
3.76039
3.7699
3.78086
3.79576
3.82154
3.86099
3.89759
1
1
1
1
1
1
1
1
1
1
1
1
1
1
1
1
1
1
1
1
1
1
1
1
1
1
0.999999
0.999999
1
0.999972
1.00114
1.0133
1.07561
1.37205
1.84281
2.55552
3.10008
3.63244
3.90771
3.96536
3.96511
3.9448
3.91511
3.87472
3.81003
3.7357
3.71326
3.70237
3.70184
3.71122
3.72812
3.73812
3.73486
3.72353
3.71297
3.70843
3.71203
3.70907
3.70203
3.69978
3.70344
3.7161
3.73153
3.73352
3.72884
3.73008
3.73509
3.7363
3.73912
3.74404
3.74694
3.748
3.74992
3.75568
3.76584
3.78012
3.79959
3.82831
3.86843
3.90026
1
1
1
1
1
1
1
1
1
1
1
1
1
1
1
1
1
1
1
1
1
1
1
1
1
1
1
1
1
0.999999
0.999999
0.999992
1.00003
1.00376
1.02814
1.16209
1.5842
2.17045
2.8503
3.32614
3.71783
3.82755
3.84325
3.84052
3.81442
3.7825
3.76954
3.74751
3.71508
3.70156
3.7063
3.71977
3.71527
3.70044
3.69203
3.68743
3.6899
3.69859
3.70337
3.7052
3.70808
3.71363
3.72287
3.72874
3.72995
3.73029
3.73086
3.73242
3.73257
3.73549
3.74029
3.74297
3.7446
3.74867
3.75832
3.77633
3.80295
3.8391
3.88111
3.90608
1
1
1
1
1
1
1
1
1
1
1
1
1
1
1
1
1
1
1
1
1
1
1
1
1
1
1
1
1
1
1
1
0.999999
1
0.999987
1.00055
1.01323
1.07066
1.34432
1.89244
2.6158
3.10411
3.5399
3.77795
3.77036
3.7659
3.75752
3.72948
3.68438
3.65689
3.65818
3.6784
3.69323
3.69774
3.69878
3.69799
3.69716
3.69907
3.70602
3.70667
3.7023
3.70312
3.71091
3.71722
3.72188
3.72579
3.7281
3.73498
3.73742
3.73756
3.74129
3.74608
3.74965
3.75283
3.76113
3.7787
3.80826
3.8504
3.89219
3.90873
1
1
1
1
1
1
1
1
1
1
1
1
1
1
1
1
1
1
1
1
1
1
1
1
1
1
1
1
1
1
1
1
1
1
0.999999
0.999999
0.999993
1.00007
1.00455
1.03932
1.19797
1.66716
2.30031
2.89167
3.25273
3.49313
3.66054
3.66262
3.60081
3.60747
3.63007
3.67233
3.71233
3.73637
3.73217
3.71486
3.69075
3.68847
3.69422
3.69519
3.68882
3.68858
3.69422
3.7033
3.71177
3.72144
3.72449
3.73247
3.74135
3.74098
3.74304
3.74786
3.7542
3.76007
3.7674
3.78168
3.81023
3.85647
3.89707
3.90793
1
1
1
1
1
1
1
1
1
1
1
1
1
1
1
1
1
1
1
1
1
1
1
1
1
1
1
1
1
1
1
1
1
1
1
1
0.999999
0.999999
0.999999
1.00002
1.00134
1.02233
1.11089
1.43813
1.97427
2.49898
2.98302
3.37248
3.52299
3.64068
3.6612
3.66715
3.6907
3.7195
3.7195
3.68919
3.63876
3.63799
3.65768
3.67664
3.68251
3.68838
3.69678
3.70622
3.72
3.7253
3.71855
3.72043
3.73113
3.73422
3.73453
3.73939
3.74918
3.76086
3.77224
3.78742
3.81602
3.86389
3.901
3.90822
1
1
1
1
1
1
1
1
1
1
1
1
1
1
1
1
1
1
1
1
1
1
1
1
1
1
1
1
1
1
1
1
1
1
1
1
1
1
1
1
1
1
1.00041
1.00914
1.05466
1.2438
1.57526
2.07186
2.59192
3.05887
3.3284
3.44723
3.50177
3.60221
3.63007
3.63748
3.62299
3.62744
3.66207
3.70534
3.71969
3.71191
3.70072
3.70035
3.71378
3.71763
3.70924
3.70813
3.71952
3.72327
3.72329
3.7276
3.73901
3.75951
3.78193
3.80394
3.83427
3.87653
3.90568
3.90972
1
1
1
1
1
1
1
1
1
1
1
1
1
1
1
1
1
1
1
1
1
1
1
1
1
1
1
1
1
1
1
1
1
1
1
1
1
1
1
1
1
1
1
0.999996
1.0001
1.0025
1.01685
1.08675
1.29938
1.62369
2.11019
2.65385
2.98303
3.27727
3.51399
3.66296
3.66553
3.6636
3.67859
3.70648
3.71672
3.69988
3.65794
3.65501
3.68246
3.70121
3.70007
3.7006
3.70602
3.71749
3.73059
3.73215
3.7378
3.75489
3.78589
3.82385
3.8593
3.8897
3.90736
3.91054
1
1
1
1
1
1
1
1
1
1
1
1
1
1
1
1
1
1
1
1
1
1
1
1
1
1
1
1
1
1
1
1
1
1
1
1
1
1
1
1
1
1
1
1
1
1
1
1.00034
1.00397
1.02199
1.1024
1.28171
1.66269
2.12658
2.56561
3.05139
3.401
3.47928
3.49775
3.56433
3.64247
3.65841
3.63989
3.64095
3.66227
3.70435
3.72879
3.73166
3.71608
3.71192
3.72509
3.74176
3.74266
3.75096
3.77955
3.82999
3.87841
3.89868
3.90356
3.90634
1
1
1
1
1
1
1
1
1
1
1
1
1
1
1
1
1
1
1
1
1
1
1
1
1
1
1
1
1
1
1
1
1
1
1
1
1
1
1
1
1
1
1
1
1
1
1
0.999999
1
1.00001
1.00047
1.00394
1.02676
1.09996
1.31924
1.67629
2.194
2.76801
3.09107
3.31041
3.53085
3.67544
3.68188
3.68114
3.68126
3.69673
3.72424
3.72793
3.7127
3.69571
3.70696
3.73898
3.74667
3.75163
3.77954
3.83547
3.89009
3.91018
3.9121
3.90928
1
1
1
1
1
1
1
1
1
1
1
1
1
1
1
1
1
1
1
1
1
1
1
1
1
1
1
1
1
1
1
1
1
1
1
1
1
1
1
1
1
1
1
1
1
1
1
1
1
1
1
0.999999
1.00003
1.00051
1.0054
1.02985
1.1401
1.3597
1.7819
2.31163
2.7234
3.12408
3.50348
3.57683
3.54922
3.55914
3.62174
3.69424
3.71427
3.69839
3.69637
3.7267
3.76318
3.78318
3.80863
3.84822
3.88856
3.91165
3.91536
3.91113
1
1
1
1
1
1
1
1
1
1
1
1
1
1
1
1
1
1
1
1
1
1
1
1
1
1
1
1
1
1
1
1
1
1
1
1
1
1
1
1
1
1
1
1
1
1
1
1
1
1
1
1
1
1
1
1.00004
1.00106
1.0073
1.04488
1.1598
1.4428
1.87514
2.40911
2.88895
3.3459
3.43406
3.52238
3.63567
3.72043
3.72778
3.71764
3.72376
3.75687
3.80457
3.84782
3.86658
3.87392
3.88777
3.90705
3.90708
1
1
1
1
1
1
1
1
1
1
1
1
1
1
1
1
1
1
1
1
1
1
1
1
1
1
1
1
1
1
1
1
1
1
1
1
1
1
1
1
1
1
1
1
1
1
1
1
1
1
1
1
1
1
1
1
1
0.999999
1.00012
1.00152
1.01232
1.0597
1.22128
1.53309
2.00104
2.57961
3.05163
3.26083
3.49263
3.68044
3.69911
3.68692
3.69658
3.76036
3.84442
3.88001
3.87574
3.87848
3.89146
3.90521
1
1
1
1
1
1
1
1
1
1
1
1
1
1
1
1
1
1
1
1
1
1
1
1
1
1
1
1
1
1
1
1
1
1
1
1
1
1
1
1
1
1
1
1
1
1
1
1
1
1
1
1
1
1
1
1
1
1
1
1
1.00001
1.00023
1.00289
1.01891
1.08712
1.30573
1.68004
2.22257
2.73672
3.14066
3.42497
3.65067
3.70024
3.71974
3.79091
3.88134
3.90521
3.90648
3.89959
3.90267
1
1
1
1
1
1
1
1
1
1
1
1
1
1
1
1
1
1
1
1
1
1
1
1
1
1
1
1
1
1
1
1
1
1
1
1
1
1
1
1
1
1
1
1
1
1
1
1
1
1
1
1
1
1
1
1
1
1
1
1
1
1
1
1.00002
1.00053
1.00609
1.03524
1.14856
1.41373
1.88195
2.39873
2.88185
3.31119
3.60702
3.65718
3.75159
3.87185
3.88902
3.85897
3.85423
1
1
1
1
1
1
1
1
1
1
1
1
1
1
1
1
1
1
1
1
1
1
1
1
1
1
1
1
1
1
1
1
1
1
1
1
1
1
1
1
1
1
1
1
1
1
1
1
1
1
1
1
1
1
1
1
1
1
1
1
1
1
1
1
1
1
1.00009
1.00149
1.01181
1.06313
1.21493
1.53638
2.02106
2.54685
3.03803
3.35425
3.57853
3.78222
3.85852
3.84986
1
1
1
1
1
1
1
1
1
1
1
1
1
1
1
1
1
1
1
1
1
1
1
1
1
1
1
1
1
1
1
1
1
1
1
1
1
1
1
1
1
1
1
1
1
1
1
1
1
1
1
1
1
1
1
1
1
1
1
1
1
1
1
1
1
1
1
1
1.00001
1.00029
1.00308
1.01957
1.08751
1.26571
1.59088
2.047
2.57027
3.01357
3.38219
3.67426
1
1
1
1
1
1
1
1
1
1
1
1
1
1
1
1
1
1
1
1
1
1
1
1
1
1
1
1
1
1
1
1
1
1
1
1
1
1
1
1
1
1
1
1
1
1
1
1
1
1
1
1
1
1
1
1
1
1
1
1
1
1
1
1
1
1
1
1
1
1
1
1.00003
1.00051
1.00426
1.02242
1.08846
1.25957
1.58847
2.03797
2.86312
1
1
1
1
1
1
1
1
1
1
1
1
1
1
1
1
1
1
1
1
1
1
1
1
1
1
1
1
1
1
1
1
1
1
1
1
1
1
1
1
1
1
1
1
1
1
1
1
1
1
1
1
1
1
1
1
1
1
1
1
1
1
1
1
1
1
1
1
1
1
1
1
1
1
1.00004
1.00049
1.004
1.0235
1.08878
1.54427
1
1
1
1
1
1
1
1
1
1
1
1
1
1
1
1
1
1
1
1
1
1
1
1
1
1
1
1
1
1
1
1
1
1
1
1
1
1
1
1
1
1
1
1
1
1
1
1
1
1
1
1
1
1
1
1
1
1
1
1
1
1
1
1
1
1
1
1
1
1
1
1
1
1
1
1
1
1.00004
1.00055
1.02922
1
1
1
1
1
1
1
1
1
1
1
1
1
1
1
1
1
1
1
1
1
1
1
1
1
1
1
1
1
1
1
1
1
1
1
1
1
1
1
1
1
1
1
1
1
1
1
1
1
1
1
1
1
1
1
1
1
1
1
1
1
1
1
1
1
1
1
1
1
1
1
1
1
1
1
1
1
1
1
1.00017
1
1
1
1
1
1
1
1
1
1
1
1
1
1
1
1
1
1
1
1
1
1
1
1
1
1
1
1
1
1
1
1
1
1
1
1
1
1
1
1
1
1
1
1
1
1
1
1
1
1
1
1
1
1
1
1
1
1
1
1
1
1
1
1
1
1
1
1
1
1
1
1
1
1
1
1
1
1
1
1
1
1
1
1
1
1
1
1
1
1
1
1
1
1
1
1
1
1
1
1
1
1
1
1
1
1
1
1
1
1
1
1
1
1
1
1
1
1
1
1
1
1
1
1
1
1
1
1
1
1
1
1
1
1
1
1
1
1
1
1
1
1
1
1
1
1
1
1
1
1
1
1
1
1
1
1
1
1
1
1
1
1
1
1
1
1
1
1
1
1
1
1
1
1
1
1
1
1
1
1
1
1
1
1
1
1
1
1
1
1
1
1
1
1
1
1
1
1
1
1
1
1
1
1
1
1
1
1
1
1
1
1
1
1
1
1
1
1
1
1
1
1
1
1
1
1
1
1
1
1
1
1
1
1
1
1
1
1
1
1
1
1
1
1
1
1
1
1
1
1
1
1
1
1
1
1
1
1
1
1
1
1
1
1
1
1
1
1
1
1
1
1
1
1
1
1
1
1
1
1
1
1
1
1
1
1
1
1
1
1
1
1
1
1
1
1
1
1
1
1
1
1
1
1
1
1
1
1
1
1
1
1
1
1
1
1
1
1
1
1
1
1
1
1
1
1
1
1
1
1
1
1
1
1
1
1
1
1
1
1
1
1
1
1
1
1
1
1
1
1
1
1
1
1
1
1
1
1
1
1
1
1
1
1
1
1
1
1
1
1
1
1
1
1
1
1
1
1
1
1
1
1
1
1
1
1
1
1
1
1
1
1
1
1
1
1
1
1
1
1
1
1
1
1
1
1
1
1
1
1
1
1
1
1
1
1
1
1
1
1
1
1
1
1
1
1
1
1
1
1
1
1
1
1
1
1
1
1
1
1
1
1
1
1
1
1
1
1
1
1
1
1
1
1
1
1
1
1
1
1
1
1
1
1
1
1
1
1
1
1
1
1
1
1
1
1
1
1
1
1
1
1
1
1
1
1
1
1
1
1
1
1
1
1
1
1
1
1
1
1
1
1
1
1
1
1
1
1
1
1
1
1
1
1
1
1
1
1
1
1
1
1
1
1
1
1
1
1
1
1
1
1
1
1
1
1
1
1
1
1
1
1
1
1
1
1
1
1
1
1
1
1
1
1
1
1
1
1
1
1
1
1
1
1
1
1
1
1
1
1
1
1
1
1
1
1
1
1
1
1
1
1
1
1
1
1
1
1
1
1
1
1
1
1
1
1
1
1
1
1
1
1
1
1
1
1
1
1
1
1
1
1
1
1
1
1
1
1
1
1
1
1
1
1
1
1
1
1
1
1
1
1
1
1
1
1
1
1
1
1
1
1
1
1
1
1
1
1
1
1
1
1
1
1
1
1
1
1
1
1
1
1
1
1
1
1
1
1
1
1
1
1
1
1
1
1
1
1
1
1
1
1
1
1
1
1
1
1
1
1
1
1
1
1
1
1
1
1
1
1
1
1
1
1
1
1
1
1
1
1
1
1
1
1
1
1
1
1
1
1
1
1
1
1
1
1
1
1
1
1
1
1
1
1
1
1
1
1
1
1
1
1
1
1
1
1
1
1
1
1
1
1
1
1
1
1
1
1
1
1
1
1
1
1
1
1
1
1
1
1
1
1
1
1
1
1
1
1
1
1
1
1
1
1
1
1
1
1
1
1
1
1
1
1
1
1
1
1
1
1
)
;

boundaryField
{
    inlet
    {
        type            fixedValue;
        value           uniform 1;
    }
    outlet
    {
        type            zeroGradient;
    }
    bottom
    {
        type            symmetryPlane;
    }
    top
    {
        type            symmetryPlane;
    }
    obstacle
    {
        type            zeroGradient;
    }
    defaultFaces
    {
        type            empty;
    }
}


// ************************************************************************* //
