/*--------------------------------*- C++ -*----------------------------------*\
| =========                 |                                                 |
| \\      /  F ield         | OpenFOAM: The Open Source CFD Toolbox           |
|  \\    /   O peration     | Version:  2206                                  |
|   \\  /    A nd           | Website:  www.openfoam.com                      |
|    \\/     M anipulation  |                                                 |
\*---------------------------------------------------------------------------*/
FoamFile
{
    version     2.0;
    format      ascii;
    arch        "LSB;label=32;scalar=64";
    class       volVectorField;
    location    "0.2";
    object      U;
}
// * * * * * * * * * * * * * * * * * * * * * * * * * * * * * * * * * * * * * //

dimensions      [0 1 -1 0 0 0 0];

internalField   nonuniform List<vector> 
75
(
(3.80808 -1.05922e-14 0)
(3.80808 -1.06093e-14 0)
(3.80808 7.1679e-16 0)
(3.80808 -8.40145e-16 0)
(3.80808 5.26341e-16 0)
(3.80808 -5.75933e-16 0)
(3.80808 -1.30606e-14 0)
(3.80808 -9.92505e-15 0)
(3.80808 -1.43616e-14 0)
(3.80808 4.0382e-15 0)
(3.80808 -5.62681e-15 0)
(3.80808 -5.96061e-15 0)
(3.80808 -2.68284e-14 0)
(3.80808 -1.46179e-14 0)
(3.80808 -1.66457e-13 0)
(3.80808 -9.85795e-15 0)
(3.80808 9.33495e-17 0)
(3.80808 9.41413e-15 0)
(3.80808 6.01983e-14 0)
(3.80808 -5.40694e-14 0)
(3.80808 4.15697e-15 0)
(3.80808 3.9536e-15 0)
(3.80808 2.11341e-14 0)
(3.80808 2.25468e-14 0)
(3.80808 9.31423e-14 0)
(3.76102 0.0100019 0)
(3.69305 0.0696328 0)
(3.62443 0.148584 0)
(3.55191 0.250999 0)
(3.48196 0.372927 0)
(3.41644 0.478286 0)
(3.35832 0.629173 0)
(3.29979 0.74333 0)
(3.23492 0.866172 0)
(3.25041 0.914018 0)
(3.80648 0.00208748 0)
(3.79475 0.023025 0)
(3.76754 0.0779839 0)
(3.70381 0.21136 0)
(3.62613 0.396577 0)
(3.49081 0.676233 0)
(3.39094 0.939349 0)
(3.21313 1.16276 0)
(3.13241 1.10572 0)
(3.198 1.01847 0)
(3.8081 1.14223e-05 0)
(3.80822 -0.000250539 0)
(3.80777 0.000831532 0)
(3.80707 0.00177555 0)
(3.80014 0.0198983 0)
(3.78302 0.0663351 0)
(3.71448 0.256338 0)
(3.68075 0.534589 0)
(3.45377 0.883077 0)
(3.32222 0.945221 0)
(3.80808 -3.42652e-06 0)
(3.80808 -4.65804e-06 0)
(3.80808 -4.41822e-06 0)
(3.80813 -7.28073e-05 0)
(3.80799 0.000529031 0)
(3.80814 -1.42384e-05 0)
(3.80138 0.0192844 0)
(3.80045 0.121209 0)
(3.62372 0.680486 0)
(3.39716 0.835455 0)
(3.80808 -5.60884e-08 0)
(3.80808 -6.67247e-07 0)
(3.80808 -1.33033e-06 0)
(3.80809 -9.72309e-06 0)
(3.80809 -8.9455e-06 0)
(3.80808 -1.21522e-06 0)
(3.80805 2.74124e-05 0)
(3.80525 0.00387344 0)
(3.7215 0.13452 0)
(3.34049 0.370072 0)
)
;

boundaryField
{
    inlet
    {
        type            fixedValue;
        value           uniform (3.80808 0 0);
    }
    outlet
    {
        type            zeroGradient;
    }
    bottom
    {
        type            symmetryPlane;
    }
    top
    {
        type            symmetryPlane;
    }
    obstacle
    {
        type            slip;
    }
    defaultFaces
    {
        type            empty;
    }
}


// ************************************************************************* //
