/*--------------------------------*- C++ -*----------------------------------*\
| =========                 |                                                 |
| \\      /  F ield         | OpenFOAM: The Open Source CFD Toolbox           |
|  \\    /   O peration     | Version:  2206                                  |
|   \\  /    A nd           | Website:  www.openfoam.com                      |
|    \\/     M anipulation  |                                                 |
\*---------------------------------------------------------------------------*/
FoamFile
{
    version     2.0;
    format      ascii;
    arch        "LSB;label=32;scalar=64";
    class       volVectorField;
    location    "0.08";
    object      U;
}
// * * * * * * * * * * * * * * * * * * * * * * * * * * * * * * * * * * * * * //

dimensions      [0 1 -1 0 0 0 0];

internalField   nonuniform List<vector> 
75
(
(5.42424 -3.85275e-15 0)
(5.42424 -3.86692e-15 0)
(5.42424 1.5759e-14 0)
(5.42424 -3.76648e-15 0)
(5.42424 -5.36051e-15 0)
(5.42424 -2.5296e-16 0)
(5.42424 -4.18072e-15 0)
(5.42424 -3.78274e-15 0)
(5.42424 -3.6448e-15 0)
(5.42424 -8.92568e-15 0)
(5.42424 -3.16305e-16 0)
(5.42424 -4.68831e-16 0)
(5.42424 -1.8842e-14 0)
(5.42424 2.40041e-15 0)
(5.42424 -1.72817e-14 0)
(5.42424 -3.61854e-15 0)
(5.42424 -3.41726e-16 0)
(5.42424 1.47901e-15 0)
(5.42424 1.49776e-14 0)
(5.42424 7.91127e-14 0)
(5.42424 -2.3254e-16 0)
(5.42424 -2.27539e-16 0)
(5.42424 3.17972e-15 0)
(5.42424 1.28518e-14 0)
(5.42424 9.27539e-14 0)
(5.39385 0.00600588 0)
(5.34374 0.063849 0)
(5.29228 0.117264 0)
(5.23012 0.246783 0)
(5.18172 0.315936 0)
(5.09942 0.511109 0)
(5.05999 0.580709 0)
(4.96935 0.754714 0)
(4.92423 0.93035 0)
(4.86338 1.07424 0)
(5.42424 5.07495e-06 0)
(5.42466 0.00337729 0)
(5.42338 -0.00276673 0)
(5.40166 0.0446141 0)
(5.3708 0.120098 0)
(5.28099 0.337904 0)
(5.2126 0.559036 0)
(5.04589 0.954041 0)
(4.96285 1.25583 0)
(4.73904 1.67026 0)
(5.42424 -2.06065e-08 0)
(5.42424 1.65438e-05 0)
(5.42426 -2.89846e-06 0)
(5.42433 -4.28648e-05 0)
(5.42473 -0.00181082 0)
(5.42258 0.0048018 0)
(5.42341 0.00309314 0)
(5.40224 0.0710894 0)
(5.37895 0.16656 0)
(5.17675 0.849168 0)
(5.42424 -1.37622e-12 0)
(5.42424 6.8408e-07 0)
(5.42424 -3.90992e-07 0)
(5.42425 -2.32661e-05 0)
(5.42426 -8.97749e-05 0)
(5.42425 -4.3817e-05 0)
(5.42435 -0.000121913 0)
(5.42383 0.000358259 0)
(5.42437 0.00153549 0)
(5.36223 0.286753 0)
(5.42424 1.52297e-12 0)
(5.42424 1.81852e-09 0)
(5.42424 -1.33318e-08 0)
(5.42424 -7.89623e-09 0)
(5.42424 -1.72265e-06 0)
(5.42424 -5.57501e-06 0)
(5.42426 -2.16746e-05 0)
(5.42427 -3.67366e-05 0)
(5.42427 -4.02566e-05 0)
(5.41929 0.0163024 0)
)
;

boundaryField
{
    inlet
    {
        type            fixedValue;
        value           uniform (5.42424 0 0);
    }
    outlet
    {
        type            zeroGradient;
    }
    bottom
    {
        type            symmetryPlane;
    }
    top
    {
        type            symmetryPlane;
    }
    obstacle
    {
        type            slip;
    }
    defaultFaces
    {
        type            empty;
    }
}


// ************************************************************************* //
