/*--------------------------------*- C++ -*----------------------------------*\
| =========                 |                                                 |
| \\      /  F ield         | OpenFOAM: The Open Source CFD Toolbox           |
|  \\    /   O peration     | Version:  2206                                  |
|   \\  /    A nd           | Website:  www.openfoam.com                      |
|    \\/     M anipulation  |                                                 |
\*---------------------------------------------------------------------------*/
FoamFile
{
    version     2.0;
    format      ascii;
    arch        "LSB;label=32;scalar=64";
    class       volScalarField;
    location    "0.16";
    object      p;
}
// * * * * * * * * * * * * * * * * * * * * * * * * * * * * * * * * * * * * * //

dimensions      [1 -1 -2 0 0 0 0];

internalField   nonuniform List<scalar> 
4800
(
1
1
1
1
1
1
1
1
1
1
1
1
1
1
1
1
1
1
1
1
1
1
1
1
1
1
1
1
1
1
1
1
1
1
1
1
1
1
1
1
1
1
1
1
1
1
1
1
1
1
1
1
1
1
1
1
1
1
1
1
1
1
1
1
1
1
1
1
1
1
1
1
1
1
1
1
1
1
1
1
1
1
1
1
1
1
1
1
1
1
1
1
1
1
1
1
1
1
1
1
1
1
1
1
1
1
1
1
1
1
1
1
1
1
1
1
1
1
1
1
1
1
1
1
1
1
1
1
1
1
1
1
1
1
1
1
1
1
1
1
1
1
1
1
1
1
1
1
1
1
1
1
1
1
1
1
1
1
1
1
1
1
1
1
1
1
1
1
1
1
1
1
1
1
1
1
1
1
1
1
1
1
1
1
1
1
1
1
1
1
1
1
1
1
1
1
1
1
1
1
1
1
1
1
1
1
1
1
1
1
1
1
1
1
1
1
1
1
1
1
1
1
1
1
1
1
1
1
1
1
1
1
1
1
1
1
1
1
1
1
1
1
1
1
1
1
1
1
1
1
1
1
1
1
1
1
1
1
1
1
1
1
1
1
1
1
1
1
1
1
1
1
1
1
1
1
1
1
1
1
1
1
1
1
1
1
1
1
1
1
1
1
1
1
1
1
1
1
1
1
1
1
1
1
1
1
1
1
1
1
1
1
1
1
1
1
1
1
1
1
1
1
1
1
1
1
1
1
1
1
1
1
1
1
1
1
1
1
1
1
1
1
1
1
1
1
1
1
1
1
1
1
1
1
1
1
1
1
1
1
1
1
1
1
1
1
1
1
1
1
1
1
1
1
1
1
1
1
1
1
1
1
1
1
1
1
1
1
1
1
1
1
1
1
1
1
1
1
1
1
1
1
1
1
1
1
1
1
1
1
1
1
1
1
1
1
1
1
1
1
1
1
1
1
1
1
1
1
1
1
1
1
1
1
1
1
1
1
1
1
1
1
1
1
1
1
1
1
1
1
1
1
1
1
1
1
1
1
1
1
1
1
1
1
1
1
1
1
1
1
1
1
1
1
1
1
1
1
1
1
1
1
1
1
1
1
1
1
1
1
1
1
1
1
1
1
1
1
1
1
1
1
1
1
1
1
1
1
1
1
1
1
1
1
1
1
1
1
1
1
1
1
1
1
1
1
1
1
1
1
1
1
1
1
1
1
1
1
1
1
1
1
1
1
1
1
1
1
1
1
1
1
1
1
1
1
1
1
1
1
1
1
1
1
1
1
1
1
1
1
1
1
1
1
1
1
1
1
1
1
1
1
1
1
1
1
1
1
1
1
1
1
1
1
1
1
1
1
1
1
1
1
1
1
1
1
1
1
1
1
1
1
1
1
1
1
1
1
1
1
1
1
1
1
1
1
1
1
1
1
1
1
1
1
1
1
1
1
1
1
1
1
1
1
1
1
1
1
1
1
1
1
1
1
1
1
1
1
1
1
1
1
1
1
1
1
1
1
1
1
1
1
1
1
1
1
1
1
1
1
1
1
1
1
1
1
1
1
1
1
1
1
1
1
1
1
1
1
1
1
1
1
1
1
1
1
1
1
1
1
1
1
1
1
1
1
1
1
1
1
1
1
1
1
1
1
1
1
1
1
1
1
1
1
1
1
1
1
1
1
1
1
1
1
1
1
1
1
1
1
1
1
1
1
1
1
1
1
1
1
1
1
1
1
1
1
1
1
1
1
1
1
1
1
1
1
1
1
1
1
1
1
1
1
1
1
1
1
1
1
1
1
1
1
1
1
1
1
1
1
1
1
1
1
1
1
1
1
1
1
1
1
1
1
1
1
1
1
1
1
1
1
1
1
1
1
1
1
1
1
1
1
1
1
1
1
1
1
1
1
1
1
1
1
1
1
1
1
1
1
1
1
1
1
1
1
1
1
1
1
1
1
1
1
1
1
1
1
1
1
1
1
1
1
1
1
1
1
1
1
1
1
1
1
1
1
1
1
1
1
1
1
1
1
1
1
1
1
1
1
1
1
1
1
1
1
1
1
1
1
1
1
1
1
1
1
1
1
1
1
1
1
1
1
1
1
1
1
1
1
1
1
1
1
1
1
1
1
1
1
1
1
1
1
1
1
1
1
1
1
1
1
1
1
1
1
1
1
1
1
1
1
1
1
1
1
1
1
1
1
1
1
1
1
1
1
1
1
1
1
1
1
1
1
1
1
1
1
1
1
1
1
1
1
1
1
1
1
1
1
1
1
1
1
1
1
1
1
1
1
1
1
1
1
1
1
1
1
1
1
1
1
1
1
1
1
1
1
1
1
1
1
1
1
1
1
1
1
1
1
1
1
1
1
1
1
1
1
1
1
1
1
1
1
1
1
1
1
1
1
1
1
1
1
1
1
1
1
1
1
1
1
1
1
1
1
1
1
1
1
1
1
1
1
1
1
1
1
1
1
1
1
1
1
1
1
1
1
1
1
1
1
1
1
1
1
1
1
1
1
1
1
1
1
1
1
1
1
1
1
1
1
1
1
1
1
1
1
1
1
1
1
1
1
1
1
1
1
1
1
1
1
1
1
1
1
1
1
1
1
1
1
1
1
1
1
1
1
1
1
1
1
1
1
1
1
1
1
1
1
1
1
1
1
1
1
1
1
1
1
1
1
1
1
1
1
1
1
1
1
1
1
1
1
1
1
1
1
1
1
1
1
1
1
1
1
1
1
1
1
1
1
1
1
1
1
1
1
1
1
1
1
1
1
1
1
1
1
1
1
1
1
1
1
1
1
1
1
1
1
1
1
1
1
1
1
1
1
1
1
1
1
1
1
1
1
1
1
1
1
1
1
1
1
1
1
1
1
1
1
1
1
1
1
1
1
1
1
1
1
1
1
1
1
1
1
1
1
1
1
1
1
1
1
1
1
1
1
1
1
1
1
1
1
1
1
1
1
1
1
1
1
1
1
1
1
1
1
1
1
1
1
1
1
1
1
1
1
1
1
1
1
1
1
1
1
1
1
1
1
1
1
1
1
1
1
1
1
1
1
1
1
1
1
1
1
1
1
1
1
1
1
1
1
1
1
1
1
1
1
1
1
1
1
1
1
1
1
1
1
1
1
1
1
1
1
1
1
1
1
1
1
1
1
1
1
1
1
1
1
1
1
1
1
1
1
1
1
1
1
1
1
1
1
1
1
1
1
1
1
1
1
1
1
1
1
1
1
1
1
1
1
1
1
1
1
1
1
1
1
1
1
1
1
1
1
1
1
1
1
1
1
1
1
1
1
1
1
1
1
1
1
1
1
1
1
1
1
1
1
1
1
1
1
1
1
1
1
1
1
1
1
1
1
1
1
1
1
1
1
1
1
1
1
1
1
1
1
1
1
1
1
1
1
1
1
1
1
1
1
1
1
1
1
1
1
1
1
1
1
1
1
1
1
1
1
1
1
1
1
1
1
1
1
1
1
1
1
1
1
1
1
1
1
1
1
1
1
1
1
1
1
1
1
1
1
1
1
1
1
1
1
1
1
1
1
1
1
1
1
1
1
1
1
1
1
1
1
1
1
1
1
1
1
1
1
1
1
1
1
1
1
1
1
1
1
1
1
1
1
1.26978
1.70539
2.16414
2.68813
3.27231
3.69304
4.15158
4.49552
4.68351
4.76781
4.69055
4.48362
4.1605
3.80001
3.53259
3.42827
3.38306
3.32829
3.32111
3.34292
3.37836
3.42066
3.45893
3.48442
3.48985
3.48657
3.48331
3.48401
3.48787
3.48909
3.49006
3.49215
3.49722
3.50446
3.50945
3.51274
3.51485
3.51321
3.50893
3.50765
3.50906
3.51252
3.51528
3.51553
3.51407
3.51044
3.50561
3.50188
3.50128
3.50177
3.5027
3.50518
3.50961
3.51352
3.51477
3.51518
3.51513
3.51318
3.51223
3.51215
3.51225
3.51358
3.5169
3.51949
3.52011
3.52004
3.51971
3.51911
3.51897
3.51934
3.51998
3.52036
3.52037
3.52006
3.51922
3.51749
3.51534
3.5146
3.51463
3.51451
1.00157
1.01395
1.07653
1.15578
1.31897
1.58462
1.87706
2.27264
2.64321
3.04802
3.34309
3.45696
3.61854
3.74718
3.72565
3.66433
3.65455
3.62439
3.54796
3.49465
3.45839
3.4305
3.43269
3.44257
3.45998
3.47183
3.48238
3.48757
3.48779
3.4881
3.48985
3.49184
3.49314
3.49585
3.4999
3.50141
3.50093
3.49767
3.49672
3.49813
3.50121
3.50706
3.51271
3.51453
3.51427
3.51392
3.51286
3.51139
3.5116
3.51258
3.51353
3.51472
3.51615
3.51662
3.51609
3.51464
3.51235
3.51023
3.5096
3.50947
3.50945
3.51006
3.51181
3.5132
3.51372
3.51389
3.51407
3.51438
3.51502
3.51609
3.51767
3.51905
3.51934
3.51923
3.51869
3.51766
3.51651
3.5162
3.51659
3.51696
0.999999
0.999984
1.00011
1.00016
1.00121
1.00801
1.03137
1.1059
1.279
1.57817
2.13713
2.80771
3.41921
3.72409
3.95879
3.96316
3.91994
3.858
3.75132
3.57617
3.44672
3.41619
3.42305
3.43025
3.45409
3.48613
3.48886
3.48663
3.48253
3.48374
3.48877
3.4975
3.5026
3.50423
3.5063
3.50537
3.50161
3.49323
3.48682
3.48579
3.48734
3.49298
3.50077
3.50739
3.51173
3.51433
3.51572
3.516
3.51628
3.51712
3.5185
3.52013
3.52166
3.52185
3.52105
3.51907
3.5161
3.51373
3.51257
3.51149
3.51056
3.51059
3.51129
3.51123
3.51073
3.50999
3.50945
3.50953
3.51
3.51081
3.51241
3.51472
3.51601
3.51617
3.51625
3.51635
3.51622
3.51639
3.51713
3.51812
1
1
1
1
0.999999
1
1
1.00003
1.00093
1.00702
1.05857
1.24419
1.67867
2.30787
2.95898
3.48989
3.58601
3.65175
3.626
3.6189
3.60188
3.58247
3.55875
3.51867
3.50513
3.47928
3.45929
3.4411
3.44546
3.45905
3.48136
3.5043
3.51312
3.51656
3.5172
3.51592
3.50811
3.4964
3.49101
3.49008
3.49224
3.49648
3.49927
3.50061
3.50289
3.50508
3.50668
3.50786
3.50927
3.51203
3.5159
3.51941
3.52145
3.52205
3.52183
3.51981
3.51712
3.5166
3.51633
3.51592
3.51595
3.51651
3.51632
3.51525
3.51333
3.51127
3.51024
3.51004
3.51022
3.51082
3.51203
3.51352
3.51404
3.51391
3.51377
3.51371
3.51368
3.51388
3.51449
3.51568
1
1
1
1
1
1
1
1
0.999998
1
0.999984
1.0006
1.01086
1.10252
1.33015
1.83788
2.49059
3.08398
3.56973
3.65742
3.73615
3.72909
3.69749
3.64336
3.54075
3.4468
3.42244
3.4269
3.4395
3.45172
3.46614
3.48345
3.5007
3.51199
3.51567
3.51667
3.51413
3.50909
3.50886
3.51045
3.51276
3.51147
3.50851
3.50715
3.50615
3.50502
3.50344
3.50129
3.49988
3.50021
3.50273
3.50602
3.50771
3.50871
3.50923
3.5093
3.51036
3.51268
3.51504
3.51717
3.5198
3.52152
3.52132
3.52043
3.51859
3.51604
3.5152
3.515
3.51497
3.5152
3.51598
3.51689
3.51681
3.51644
3.51576
3.51498
3.51469
3.51463
3.51486
3.51527
1
1
1
1
1
1
1
1
1
1
0.999999
0.999999
0.99999
1.00007
1.00176
1.02384
1.16803
1.44904
2.04233
2.64247
3.21848
3.51932
3.52312
3.55964
3.58667
3.54171
3.4889
3.48752
3.48161
3.47168
3.46546
3.45414
3.45196
3.45939
3.47501
3.49176
3.5025
3.51063
3.51636
3.52102
3.52536
3.52588
3.524
3.51894
3.51285
3.5088
3.506
3.50271
3.50005
3.50006
3.50322
3.50629
3.50663
3.50581
3.50399
3.50246
3.50289
3.50496
3.50827
3.51176
3.51512
3.5183
3.51958
3.51948
3.51932
3.51847
3.51824
3.51849
3.51918
3.52042
3.52116
3.52115
3.52059
3.51991
3.51877
3.51749
3.51721
3.51727
3.51739
3.51699
1
1
1
1
1
1
1
1
1
1
1
1
1
1
1
0.999983
1.00042
1.00485
1.05218
1.26125
1.64842
2.27158
2.81381
3.3469
3.57291
3.61207
3.59436
3.56881
3.54454
3.51199
3.48514
3.45146
3.43592
3.43574
3.44323
3.45829
3.47132
3.481
3.49237
3.50721
3.52265
3.52906
3.5278
3.52363
3.51857
3.51652
3.51602
3.5154
3.51429
3.51278
3.51329
3.5145
3.51438
3.51261
3.50927
3.5069
3.50612
3.5068
3.50909
3.51223
3.5146
3.51583
3.51521
3.51464
3.51396
3.51377
3.51427
3.51498
3.51641
3.51941
3.52108
3.52086
3.52003
3.51851
3.5168
3.51575
3.51574
3.51701
3.51821
3.51798
1
1
1
1
1
1
1
1
1
1
1
1
1
1
1
0.999999
0.999999
0.999995
1.00001
1.00164
1.01436
1.1187
1.40869
1.88669
2.50483
2.97044
3.39797
3.5063
3.50158
3.53698
3.54933
3.5242
3.49544
3.47886
3.46504
3.4609
3.459
3.45921
3.46469
3.47593
3.48668
3.49914
3.5044
3.50445
3.50558
3.5084
3.51158
3.51511
3.51766
3.52068
3.52414
3.52553
3.52548
3.52286
3.51746
3.5113
3.50826
3.50814
3.50933
3.51173
3.51495
3.5142
3.51232
3.51051
3.5093
3.50934
3.5097
3.51039
3.51246
3.51567
3.51719
3.51713
3.51638
3.51446
3.5124
3.51146
3.51162
3.51339
3.51606
3.51757
1
1
1
1
1
1
1
1
1
1
1
1
1
1
1
1
1
1
1
1
0.999988
1.00034
1.00572
1.03748
1.23137
1.61257
2.21091
2.71455
3.14811
3.45299
3.53523
3.56033
3.5608
3.55386
3.53443
3.50944
3.48773
3.47112
3.46955
3.46785
3.46641
3.47101
3.47866
3.48012
3.48382
3.48769
3.48946
3.49399
3.50312
3.51269
3.51917
3.52176
3.52305
3.5219
3.51792
3.51644
3.51545
3.51578
3.51721
3.51806
3.51642
3.5145
3.51201
3.50944
3.50827
3.5084
3.50913
3.51105
3.51416
3.51646
3.51644
3.51557
3.51441
3.51241
3.51063
3.50999
3.5101
3.51151
3.51576
3.5192
1
1
1
1
1
1
1
1
1
1
1
1
1
1
1
1
1
1
1
1
0.999999
0.999999
0.999998
1.00001
1.00193
1.01727
1.10276
1.42067
1.89288
2.51639
2.92224
3.2555
3.45605
3.51165
3.53064
3.53761
3.53048
3.52129
3.5209
3.51632
3.50483
3.49774
3.49158
3.48232
3.48139
3.48431
3.48455
3.4845
3.4898
3.49993
3.50479
3.50574
3.50534
3.50583
3.50712
3.50914
3.51125
3.51392
3.51728
3.51959
3.52012
3.51908
3.51752
3.51563
3.51382
3.51338
3.51354
3.51442
3.51691
3.51872
3.51851
3.51751
3.51501
3.51197
3.50967
3.50892
3.50892
3.5101
3.51469
3.52051
1
1
1
1
1
1
1
1
1
1
1
1
1
1
1
1
1
1
1
1
1
1
1
1
1
0.999996
1.00035
1.00856
1.04822
1.24414
1.71017
2.32143
2.79593
3.09621
3.35739
3.47289
3.49369
3.51583
3.53828
3.53987
3.53668
3.53332
3.52378
3.51687
3.51693
3.51828
3.51168
3.50307
3.50083
3.50053
3.50034
3.50009
3.4991
3.49556
3.49521
3.49754
3.50157
3.5062
3.51043
3.5138
3.51623
3.5167
3.51668
3.51621
3.51584
3.51661
3.51749
3.5191
3.52202
3.52313
3.52232
3.52056
3.51703
3.51227
3.5091
3.50799
3.50799
3.50928
3.51307
3.51885
1
1
1
1
1
1
1
1
1
1
1
1
1
1
1
1
1
1
1
1
1
1
1
1
1
0.999999
1
0.999996
1.00007
1.00305
1.03316
1.14557
1.5174
2.05709
2.7033
3.01955
3.24679
3.35
3.41762
3.47932
3.52523
3.53523
3.53002
3.52105
3.52309
3.52886
3.53151
3.53278
3.53398
3.53118
3.5246
3.51904
3.5112
3.49995
3.49482
3.49456
3.49696
3.50192
3.50598
3.50879
3.51094
3.51146
3.51078
3.5104
3.51169
3.51364
3.51601
3.51932
3.52274
3.5231
3.52233
3.52125
3.51912
3.51616
3.51316
3.51081
3.50952
3.50979
3.51243
3.51651
1
1
1
1
1
1
1
1
1
1
1
1
1
1
1
1
1
1
1
1
1
1
1
1
1
1
1
1
1
0.999997
1.00004
1.00098
1.01808
1.0909
1.34906
1.89846
2.62299
3.06641
3.21848
3.33762
3.4176
3.44302
3.45101
3.44957
3.46174
3.48935
3.51512
3.52636
3.52973
3.53367
3.5348
3.53285
3.52798
3.52007
3.51449
3.51423
3.51553
3.51492
3.5135
3.51275
3.51157
3.50957
3.50669
3.50526
3.50657
3.50867
3.51102
3.51474
3.51829
3.51875
3.51853
3.51792
3.51663
3.51453
3.51324
3.51333
3.51315
3.51262
3.51284
3.51564
1
1
1
1
1
1
1
1
1
1
1
1
1
1
1
1
1
1
1
1
1
1
1
1
1
1
1
1
1
1
1
0.999999
1.00001
1.00043
1.00793
1.0765
1.2922
1.80715
2.43309
3.09606
3.31866
3.36787
3.41616
3.40137
3.41086
3.42865
3.45463
3.47422
3.48398
3.49408
3.50504
3.51251
3.51735
3.51716
3.5159
3.5173
3.52167
3.52325
3.52277
3.52282
3.5215
3.51819
3.51412
3.50979
3.50735
3.50828
3.51003
3.51272
3.51422
3.51412
3.51358
3.51292
3.51099
3.5093
3.50996
3.51133
3.51351
3.51567
3.51646
3.51652
1
1
1
1
1
1
1
1
1
1
1
1
1
1
1
1
1
1
1
1
1
1
1
1
1
1
1
1
1
1
1
1
1
1
0.999998
1.0004
1.00515
1.06363
1.24668
1.71538
2.35233
3.00405
3.36452
3.41653
3.46939
3.47193
3.46455
3.46914
3.47005
3.4695
3.47262
3.47557
3.47982
3.48752
3.49984
3.50964
3.51686
3.51867
3.5171
3.51649
3.51642
3.51546
3.51441
3.51363
3.51302
3.51439
3.51599
3.5174
3.51777
3.51673
3.51388
3.50977
3.50567
3.50481
3.50604
3.50787
3.51181
3.51639
3.51942
3.52012
1
1
1
1
1
1
1
1
1
1
1
1
1
1
1
1
1
1
1
1
1
1
1
1
1
1
1
1
1
1
1
1
1
1
1
1
0.999997
1.00033
1.00391
1.04353
1.23564
1.68189
2.34134
2.95227
3.32349
3.48843
3.51098
3.53407
3.52962
3.51858
3.50202
3.48637
3.47662
3.47806
3.48732
3.4936
3.4986
3.49985
3.49837
3.49816
3.50109
3.50646
3.50963
3.50946
3.50905
3.51205
3.51644
3.51863
3.51939
3.51973
3.51865
3.51401
3.50718
3.50452
3.50522
3.50708
3.51105
3.51546
3.51901
3.52137
1
1
1
1
1
1
1
1
1
1
1
1
1
1
1
1
1
1
1
1
1
1
1
1
1
1
1
1
1
1
1
1
1
1
1
1
1
1
0.999997
1.00019
1.00404
1.03921
1.26277
1.72006
2.35128
2.93406
3.3368
3.48141
3.5178
3.54508
3.5444
3.53562
3.52642
3.5201
3.51922
3.51707
3.51067
3.50403
3.49839
3.49428
3.49532
3.49863
3.50038
3.50095
3.5026
3.50681
3.51293
3.51618
3.51753
3.51865
3.51921
3.5166
3.51053
3.50674
3.50647
3.50771
3.51054
3.51341
3.51581
3.51893
1
1
1
1
1
1
1
1
1
1
1
1
1
1
1
1
1
1
1
1
1
1
1
1
1
1
1
1
1
1
1
1
1
1
1
1
1
1
1
1
0.999998
1.00018
1.00586
1.04301
1.27859
1.80182
2.48847
2.96435
3.256
3.45349
3.49696
3.50391
3.52548
3.54037
3.54733
3.54759
3.54191
3.53537
3.52691
3.51568
3.50758
3.50499
3.50373
3.50333
3.50394
3.50552
3.51131
3.51501
3.51593
3.51714
3.51834
3.51641
3.51247
3.51038
3.51013
3.51073
3.51154
3.51219
3.51262
3.51463
1
1
1
1
1
1
1
1
1
1
1
1
1
1
1
1
1
1
1
1
1
1
1
1
1
1
1
1
1
1
1
1
1
1
1
1
1
1
1
1
1
1
1
1.00022
1.00784
1.05811
1.30882
1.92988
2.6567
3.11064
3.27236
3.33815
3.413
3.4584
3.49451
3.51939
3.53088
3.53319
3.52852
3.52077
3.51547
3.51319
3.51414
3.51534
3.51628
3.51711
3.51909
3.51898
3.51709
3.51522
3.51398
3.51296
3.51271
3.5134
3.5139
3.51463
3.51483
3.51443
3.51311
3.5121
1
1
1
1
1
1
1
1
1
1
1
1
1
1
1
1
1
1
1
1
1
1
1
1
1
1
1
1
1
1
1
1
1
1
1
1
1
1
1
1
1
1
1
1
1.00001
1.00038
1.01069
1.09381
1.41518
2.03402
2.90172
3.26261
3.3451
3.39011
3.428
3.45804
3.47834
3.49253
3.49544
3.49453
3.49388
3.49848
3.50503
3.51078
3.516
3.51921
3.52171
3.5219
3.51885
3.51302
3.50984
3.50798
3.50838
3.51034
3.51272
3.51497
3.51657
3.51802
3.51802
3.51553
1
1
1
1
1
1
1
1
1
1
1
1
1
1
1
1
1
1
1
1
1
1
1
1
1
1
1
1
1
1
1
1
1
1
1
1
1
1
1
1
1
1
1
1
1
0.999999
1.00002
1.00101
1.01948
1.13503
1.57313
2.31634
2.99761
3.4044
3.46819
3.4936
3.49168
3.48494
3.48403
3.48261
3.48127
3.48559
3.4888
3.49172
3.50017
3.51498
3.52104
3.52155
3.5189
3.51141
3.50552
3.50408
3.50428
3.50649
3.51037
3.51266
3.51452
3.51589
3.51704
3.51921
1
1
1
1
1
1
1
1
1
1
1
1
1
1
1
1
1
1
1
1
1
1
1
1
1
1
1
1
1
1
1
1
1
1
1
1
1
1
1
1
1
1
1
1
1
1
1
0.999999
1.00008
1.00223
1.03701
1.27044
1.79843
2.55521
3.19575
3.46175
3.52915
3.53956
3.531
3.5181
3.51871
3.51679
3.50496
3.49211
3.49328
3.50836
3.51775
3.5188
3.51761
3.51346
3.50832
3.50534
3.50394
3.50404
3.5065
3.50957
3.51092
3.512
3.51434
3.51763
1
1
1
1
1
1
1
1
1
1
1
1
1
1
1
1
1
1
1
1
1
1
1
1
1
1
1
1
1
1
1
1
1
1
1
1
1
1
1
1
1
1
1
1
1
1
1
1
1
1
1.00032
1.00803
1.08192
1.43628
2.17448
2.79151
3.25266
3.496
3.49421
3.48772
3.52421
3.54475
3.534
3.50817
3.50238
3.51045
3.51798
3.51866
3.51666
3.51502
3.51534
3.51519
3.51267
3.51015
3.51056
3.51138
3.51075
3.50857
3.50623
3.50651
1
1
1
1
1
1
1
1
1
1
1
1
1
1
1
1
1
1
1
1
1
1
1
1
1
1
1
1
1
1
1
1
1
1
1
1
1
1
1
1
1
1
1
1
1
1
1
1
1
1
0.999999
1.00001
1.00128
1.02177
1.1785
1.75443
2.54122
3.22119
3.25433
3.3259
3.43304
3.51468
3.51598
3.50056
3.49419
3.50175
3.50812
3.50888
3.50779
3.50782
3.51121
3.5156
3.51665
3.51725
3.5201
3.52327
3.52277
3.51673
3.5062
3.50385
1
1
1
1
1
1
1
1
1
1
1
1
1
1
1
1
1
1
1
1
1
1
1
1
1
1
1
1
1
1
1
1
1
1
1
1
1
1
1
1
1
1
1
1
1
1
1
1
1
1
1
1
1
1.00012
1.00515
1.08143
1.3726
2.10371
3.00878
3.29047
3.43855
3.50315
3.50191
3.49816
3.50126
3.50619
3.50105
3.49561
3.49319
3.49387
3.49673
3.49678
3.49908
3.50594
3.5166
3.52731
3.53322
3.53274
3.52654
3.51253
1
1
1
1
1
1
1
1
1
1
1
1
1
1
1
1
1
1
1
1
1
1
1
1
1
1
1
1
1
1
1
1
1
1
1
1
1
1
1
1
1
1
1
1
1
1
1
1
1
1
1
1
1
1
1.00002
1.0012
1.02054
1.17113
1.82811
2.61434
3.18343
3.49202
3.52269
3.53013
3.53789
3.54352
3.53833
3.52382
3.51398
3.50861
3.50338
3.496
3.48726
3.48574
3.48981
3.50504
3.52582
3.53324
3.53321
3.52636
1
1
1
1
1
1
1
1
1
1
1
1
1
1
1
1
1
1
1
1
1
1
1
1
1
1
1
1
1
1
1
1
1
1
1
1
1
1
1
1
1
1
1
1
1
1
1
1
1
1
1
1
1
1
1
1
1.00016
1.00577
1.09681
1.56835
2.25962
3.06634
3.27167
3.3758
3.48612
3.52564
3.52841
3.52905
3.5319
3.53768
3.5406
3.53054
3.50171
3.48237
3.47882
3.48338
3.49609
3.51281
3.52649
3.52755
1
1
1
1
1
1
1
1
1
1
1
1
1
1
1
1
1
1
1
1
1
1
1
1
1
1
1
1
1
1
1
1
1
1
1
1
1
1
1
1
1
1
1
1
1
1
1
1
1
1
1
1
1
1
1
1
1
1.00003
1.00251
1.047
1.26163
1.93888
2.974
3.2614
3.36683
3.42339
3.46692
3.45687
3.45982
3.49505
3.53732
3.55004
3.54843
3.53585
3.51531
3.49306
3.48745
3.49101
3.5016
3.51635
1
1
1
1
1
1
1
1
1
1
1
1
1
1
1
1
1
1
1
1
1
1
1
1
1
1
1
1
1
1
1
1
1
1
1
1
1
1
1
1
1
1
1
1
1
1
1
1
1
1
1
1
1
1
1
1
1
1
1.00001
1.00056
1.01338
1.13254
1.79027
2.68202
3.20518
3.48081
3.51053
3.46172
3.41514
3.4355
3.47133
3.51422
3.53965
3.54334
3.53954
3.52526
3.50345
3.49515
3.49632
3.50561
1
1
1
1
1
1
1
1
1
1
1
1
1
1
1
1
1
1
1
1
1
1
1
1
1
1
1
1
1
1
1
1
1
1
1
1
1
1
1
1
1
1
1
1
1
1
1
1
1
1
1
1
1
1
1
1
1
1
1
1
1.00011
1.00494
1.10853
1.58189
2.29665
3.17675
3.49852
3.51321
3.4837
3.46006
3.44833
3.45654
3.48641
3.51758
3.5364
3.54186
3.52975
3.51287
3.5049
3.50244
1
1
1
1
1
1
1
1
1
1
1
1
1
1
1
1
1
1
1
1
1
1
1
1
1
1
1
1
1
1
1
1
1
1
1
1
1
1
1
1
1
1
1
1
1
1
1
1
1
1
1
1
1
1
1
1
1
1
1
1
1
1.00004
1.00324
1.05549
1.35041
2.13098
2.98437
3.33451
3.48523
3.56136
3.534
3.48972
3.47931
3.47879
3.49685
3.51193
3.52134
3.52217
3.51155
3.50171
1
1
1
1
1
1
1
1
1
1
1
1
1
1
1
1
1
1
1
1
1
1
1
1
1
1
1
1
1
1
1
1
1
1
1
1
1
1
1
1
1
1
1
1
1
1
1
1
1
1
1
1
1
1
1
1
1
1
1
1
1
1
1.00001
1.00107
1.02324
1.21761
2.03891
2.86319
3.31899
3.50879
3.54551
3.5466
3.53921
3.50769
3.48853
3.49024
3.50149
3.52094
3.52516
3.51193
1
1
1
1
1
1
1
1
1
1
1
1
1
1
1
1
1
1
1
1
1
1
1
1
1
1
1
1
1
1
1
1
1
1
1
1
1
1
1
1
1
1
1
1
1
1
1
1
1
1
1
1
1
1
1
1
1
1
1
1
1
1
1
1
1.00033
1.0123
1.21302
1.93515
2.68028
3.24632
3.50756
3.56708
3.56282
3.52916
3.50177
3.49228
3.49082
3.51341
3.53884
3.53443
1
1
1
1
1
1
1
1
1
1
1
1
1
1
1
1
1
1
1
1
1
1
1
1
1
1
1
1
1
1
1
1
1
1
1
1
1
1
1
1
1
1
1
1
1
1
1
1
1
1
1
1
1
1
1
1
1
1
1
1
1
1
1
1
1
1.00024
1.01283
1.16138
1.73749
2.70733
3.23252
3.38621
3.46608
3.50471
3.49541
3.47063
3.45683
3.47723
3.52961
3.55373
1
1
1
1
1
1
1
1
1
1
1
1
1
1
1
1
1
1
1
1
1
1
1
1
1
1
1
1
1
1
1
1
1
1
1
1
1
1
1
1
1
1
1
1
1
1
1
1
1
1
1
1
1
1
1
1
1
1
1
1
1
1
1
1
1
1
1.00018
1.00827
1.1093
1.59252
2.5832
3.23182
3.508
3.5767
3.55358
3.48161
3.41759
3.41158
3.43821
3.54379
1
1
1
1
1
1
1
1
1
1
1
1
1
1
1
1
1
1
1
1
1
1
1
1
1
1
1
1
1
1
1
1
1
1
1
1
1
1
1
1
1
1
1
1
1
1
1
1
1
1
1
1
1
1
1
1
1
1
1
1
1
1
1
1
1
1
1
1.0001
1.00403
1.07527
1.58701
2.47359
3.12697
3.52035
3.57852
3.57725
3.51006
3.42608
3.41875
3.71732
1
1
1
1
1
1
1
1
1
1
1
1
1
1
1
1
1
1
1
1
1
1
1
1
1
1
1
1
1
1
1
1
1
1
1
1
1
1
1
1
1
1
1
1
1
1
1
1
1
1
1
1
1
1
1
1
1
1
1
1
1
1
1
1
1
1
1
1
1.00004
1.00322
1.07286
1.57213
2.4734
3.12144
3.52473
3.56276
3.56006
3.49199
3.49519
4.99272
1
1
1
1
1
1
1
1
1
1
1
1
1
1
1
1
1
1
1
1
1
1
1
1
1
1
1
1
1
1
1
1
1
1
1
1
1
1
1
1
1
1
1
1
1
1
1
1
1
1
1
1
1
1
1
1
1
1
1
1
1
1
1
1
1
1
1
1
1
1.00005
1.00345
1.07717
1.56476
2.41218
3.17796
3.4673
3.56926
3.73547
4.52309
7.51422
1
1
1
1
1
1
1
1
1
1
1
1
1
1
1
1
1
1
1
1
1
1
1
1
1
1
1
1
1
1
1
1
1
1
1
1
1
1
1
1
1
1
1
1
1
1
1
1
1
1
1
1
1
1
1
1
1
1
1
1
1
1
1
1
1
1
1
1
1
1
1.00005
1.0038
1.06804
1.52425
2.53724
3.12989
4.08486
5.1188
7.06876
8.71788
1
1
1
1
1
1
1
1
1
1
1
1
1
1
1
1
1
1
1
1
1
1
1
1
1
1
1
1
1
1
1
1
1
1
1
1
1
1
1
1
1
1
1
1
1
1
1
1
1
1
1
1
1
1
1
1
1
1
1
1
1
1
1
1
1
1
1
1
1
1
1
1.00005
1.00268
1.08319
1.61647
3.46238
5.7936
8.66908
10.4892
10.2632
)
;

boundaryField
{
    inlet
    {
        type            fixedValue;
        value           uniform 1;
    }
    outlet
    {
        type            zeroGradient;
    }
    bottom
    {
        type            symmetryPlane;
    }
    top
    {
        type            symmetryPlane;
    }
    obstacle
    {
        type            zeroGradient;
    }
    defaultFaces
    {
        type            empty;
    }
}


// ************************************************************************* //
