/*--------------------------------*- C++ -*----------------------------------*\
| =========                 |                                                 |
| \\      /  F ield         | OpenFOAM: The Open Source CFD Toolbox           |
|  \\    /   O peration     | Version:  2206                                  |
|   \\  /    A nd           | Website:  www.openfoam.com                      |
|    \\/     M anipulation  |                                                 |
\*---------------------------------------------------------------------------*/
FoamFile
{
    version     2.0;
    format      ascii;
    arch        "LSB;label=32;scalar=64";
    class       volScalarField;
    location    "0.12";
    object      p;
}
// * * * * * * * * * * * * * * * * * * * * * * * * * * * * * * * * * * * * * //

dimensions      [1 -1 -2 0 0 0 0];

internalField   nonuniform List<scalar> 
4800
(
1
1
1
1
1
1
1
1
1
1
1
1
1
1
1
1
1
1
1
1
1
1
1
1
1
1
1
1
1
1
1
1
1
1
1
1
1
1
1
1
1
1
1
1
1
1
1
1
1
1
1
1
1
1
1
1
1
1
1
1
1
1
1
1
1
1
1
1
1
1
1
1
1
1
1
1
1
1
1
1
1
1
1
1
1
1
1
1
1
1
1
1
1
1
1
1
1
1
1
1
1
1
1
1
1
1
1
1
1
1
1
1
1
1
1
1
1
1
1
1
1
1
1
1
1
1
1
1
1
1
1
1
1
1
1
1
1
1
1
1
1
1
1
1
1
1
1
1
1
1
1
1
1
1
1
1
1
1
1
1
1
1
1
1
1
1
1
1
1
1
1
1
1
1
1
1
1
1
1
1
1
1
1
1
1
1
1
1
1
1
1
1
1
1
1
1
1
1
1
1
1
1
1
1
1
1
1
1
1
1
1
1
1
1
1
1
1
1
1
1
1
1
1
1
1
1
1
1
1
1
1
1
1
1
1
1
1
1
1
1
1
1
1
1
1
1
1
1
1
1
1
1
1
1
1
1
1
1
1
1
1
1
1
1
1
1
1
1
1
1
1
1
1
1
1
1
1
1
1
1
1
1
1
1
1
1
1
1
1
1
1
1
1
1
1
1
1
1
1
1
1
1
1
1
1
1
1
1
1
1
1
1
1
1
1
1
1
1
1
1
1
1
1
1
1
1
1
1
1
1
1
1
1
1
1
1
1
1
1
1
1
1
1
1
1
1
1
1
1
1
1
1
1
1
1
1
1
1
1
1
1
1
1
1
1
1
1
1
1
1
1
1
1
1
1
1
1
1
1
1
1
1
1
1
1
1
1
1
1
1
1
1
1
1
1
1
1
1
1
1
1
1
1
1
1
1
1
1
1
1
1
1
1
1
1
1
1
1
1
1
1
1
1
1
1
1
1
1
1
1
1
1
1
1
1
1
1
1
1
1
1
1
1
1
1
1
1
1
1
1
1
1
1
1
1
1
1
1
1
1
1
1
1
1
1
1
1
1
1
1
1
1
1
1
1
1
1
1
1
1
1
1
1
1
1
1
1
1
1
1
1
1
1
1
1
1
1
1
1
1
1
1
1
1
1
1
1
1
1
1
1
1
1
1
1
1
1
1
1
1
1
1
1
1
1
1
1
1
1
1
1
1
1
1
1
1
1
1
1
1
1
1
1
1
1
1
1
1
1
1
1
1
1
1
1
1
1
1
1
1
1
1
1
1
1
1
1
1
1
1
1
1
1
1
1
1
1
1
1
1
1
1
1
1
1
1
1
1
1
1
1
1
1
1
1
1
1
1
1
1
1
1
1
1
1
1
1
1
1
1
1
1
1
1
1
1
1
1
1
1
1
1
1
1
1
1
1
1
1
1
1
1
1
1
1
1
1
1
1
1
1
1
1
1
1
1
1
1
1
1
1
1
1
1
1
1
1
1
1
1
1
1
1
1
1
1
1
1
1
1
1
1
1
1
1
1
1
1
1
1
1
1
1
1
1
1
1
1
1
1
1
1
1
1
1
1
1
1
1
1
1
1
1
1
1
1
1
1
1
1
1
1
1
1
1
1
1
1
1
1
1
1
1
1
1
1
1
1
1
1
1
1
1
1
1
1
1
1
1
1
1
1
1
1
1
1
1
1
1
1
1
1
1
1
1
1
1
1
1
1
1
1
1
1
1
1
1
1
1
1
1
1
1
1
1
1
1
1
1
1
1
1
1
1
1
1
1
1
1
1
1
1
1
1
1
1
1
1
1
1
1
1
1
1
1
1
1
1
1
1
1
1
1
1
1
1
1
1
1
1
1
1
1
1
1
1
1
1
1
1
1
1
1
1
1
1
1
1
1
1
1
1
1
1
1
1
1
1
1
1
1
1
1
1
1
1
1
1
1
1
1
1
1
1
1
1
1
1
1
1
1
1
1
1
1
1
1
1
1
1
1
1
1
1
1
1
1
1
1
1
1
1
1
1
1
1
1
1
1
1
1
1
1
1
1
1
1
1
1
1
1
1
1
1
1
1
1
1
1
1
1
1
1
1
1
1
1
1
1
1
1
1
1
1
1
1
1
1
1
1
1
1
1
1
1
1
1
1
1
1
1
1
1
1
1
1
1
1
1
1
1
1
1
1
1
1
1
1
1
1
1
1
1
1
1
1
1
1
1
1
1
1
1
1
1
1
1
1
1
1
1
1
1
1
1
1
1
1
1
1
1
1
1
1
1
1
1
1
1
1
1
1
1
1
1
1
1
1
1
1
1
1
1
1
1
1
1
1
1
1
1
1
1
1
1
1
1
1
1
1
1
1
1
1
1
1
1
1
1
1
1
1
1
1
1
1
1
1
1
1
1
1
1
1
1
1
1
1
1
1
1
1
1
1
1
1
1
1
1
1
1
1
1
1
1
1
1
1
1
1
1
1
1
1
1
1
1
1
1
1
1
1
1
1
1
1
1
1
1
1
1
1
1
1
1
1
1
1
1
1
1
1
1
1
1
1
1
1
1
1
1
1
1
1
1
1
1
1
1
1
1
1
1
1
1
1
1
1
1
1
1
1
1
1
1
1
1
1
1
1
1
1
1
1
1
1
1
1
1
1
1
1
1
1
1
1
1
1
1
1
1
1
1
1
1
1
1
1
1
1
1
1
1
1
1
1
1
1
1
1
1
1
1
1
1
1
1
1
1
1
1
1
1
1
1
1
1
1
1
1
1
1
1
1
1
1
1
1
1
1
1
1
1
1
1
1
1
1
1
1
1
1
1
1
1
1
1
1
1
1
1
1
1
1
1
1
1
1
1
1
1
1
1
1
1
1
1
1
1
1
1
1
1
1
1
1
1
1
1
1
1
1
1
1
1
1
1
1
1
1
1
1
1
1
1
1
1
1
1
1
1
1
1
1
1
1
1
1
1
1
1
1
1
1
1
1
1
1
1
1
1
1
1
1
1
1
1
1
1
1
1
1
1
1
1
1
1
1
1
1
1
1
1
1
1
1
1
1
1
1
1
1
1
1
1
1
1
1
1
1
1
1
1
1
1
1
1
1
1
1
1
1
1
1
1
1
1
1
1
1
1
1
1
1
1
1
1
1
1
1
1
1
1
1
1
1
1
1
1
1
1
1
1
1
1
1
1
1
1
1
1
1
1
1
1
1
1
1
1
1
1
1
1
1
1
1
1
1
1
1
1
1
1
1
1
1
1
1
1
1
1
1
1
1
1
1
1
1
1
1
1
1
1
1
1
1
1
1
1
1
1
1
1
1
1
1
1
1
1
1
1
1
1
1
1
1
1
1
1
1
1
1
1
1
1
1
1
1
1
1
1
1
1
1
1
1
1
1
1
1
1
1
1
1
1
1
1
1
1
1
1
1
1
1
1
1
1
1
1
1
1
1
1
1
1
1
1
1
1
1
1
1
1
1
1
1
1
1
1
1
1
1
1
1
1
1
1
1
1
1
1
1
1
1
1
1
1
1
1
1
1
1
1
1
1
1
1
1
1
1
1
1
1
1
1
1
1
1
1
1
1
1
1
1
1
1
1
1
1
1
1
1
1
1
1
1
1
1
1
1
1.26927
1.69174
2.2194
2.68287
3.16992
3.72181
4.01729
4.32907
4.56337
4.53743
4.37281
4.05422
3.74042
3.50062
3.35287
3.2484
3.19232
3.18404
3.19572
3.22634
3.26316
3.29667
3.32098
3.33202
3.33642
3.33645
3.33617
3.34208
3.36082
3.37552
3.37749
3.37626
3.37239
3.36646
3.36027
3.35591
3.35261
3.35137
3.35103
3.3501
3.34938
3.35123
3.35408
3.35539
3.35573
3.35563
3.35575
3.35751
3.36156
3.36649
3.37056
3.37228
3.37196
3.371
3.37001
3.3686
3.36704
3.36689
3.36729
3.36844
3.37039
3.3695
3.3663
3.36068
3.35114
3.3357
3.31478
3.29074
3.26692
3.24735
3.2338
3.2226
3.21158
3.20175
3.19382
3.1879
3.18368
3.17906
3.17468
3.16767
1.00482
1.0197
1.06763
1.20405
1.36904
1.63695
1.99004
2.35139
2.7317
3.07381
3.29951
3.3819
3.57387
3.6207
3.55027
3.47758
3.44467
3.39405
3.34385
3.32368
3.29822
3.28709
3.2901
3.29979
3.31345
3.32512
3.33009
3.33743
3.34826
3.35105
3.35214
3.35363
3.35563
3.35795
3.35907
3.35942
3.36088
3.36217
3.36289
3.36291
3.36322
3.3636
3.36367
3.36306
3.36177
3.36039
3.35942
3.35961
3.36075
3.36224
3.36314
3.36371
3.36331
3.36257
3.36217
3.36215
3.36299
3.36398
3.36472
3.36624
3.36841
3.36761
3.36461
3.35933
3.34993
3.33425
3.31261
3.28849
3.26656
3.24758
3.23115
3.21731
3.20629
3.19843
3.19286
3.18829
3.18398
3.1793
3.17428
3.16532
1
0.999996
1.00002
1.00071
1.00353
1.01552
1.06137
1.16081
1.40662
1.79836
2.43377
3.0562
3.50914
3.79103
3.77008
3.72839
3.66771
3.59411
3.45472
3.35764
3.29977
3.28123
3.28744
3.30845
3.32585
3.33084
3.33199
3.33058
3.32774
3.32903
3.33278
3.33681
3.34226
3.34863
3.35416
3.35831
3.36167
3.36446
3.36673
3.36781
3.3687
3.36948
3.36933
3.36916
3.36866
3.36803
3.36695
3.36589
3.36576
3.3648
3.36294
3.36181
3.36074
3.35993
3.35915
3.35905
3.36033
3.36121
3.36144
3.36205
3.36335
3.36253
3.35958
3.35463
3.34614
3.33148
3.31057
3.28701
3.26556
3.24713
3.23073
3.21671
3.20623
3.19922
3.19385
3.18939
3.18535
3.1801
3.17433
3.16537
1
1
0.999999
1
0.999999
0.999995
1.00004
1.00038
1.00429
1.02506
1.13343
1.4838
1.99167
2.7429
3.12728
3.45639
3.49123
3.48139
3.50686
3.51715
3.48848
3.42186
3.39199
3.37281
3.34647
3.3268
3.31325
3.31404
3.31984
3.32586
3.33208
3.33738
3.34217
3.34568
3.34683
3.34798
3.34898
3.35022
3.35271
3.35633
3.36111
3.36547
3.36827
3.37044
3.37167
3.3716
3.37086
3.37006
3.36941
3.36848
3.3671
3.36573
3.36455
3.36399
3.36322
3.36325
3.36423
3.36455
3.36404
3.36305
3.36248
3.3607
3.35693
3.35111
3.34169
3.32632
3.30557
3.28219
3.26068
3.24481
3.23011
3.21607
3.20613
3.20002
3.19498
3.19053
3.18648
3.18124
3.175
3.16582
1
1
1
1
1
1
1
0.999999
1
0.99999
1.00021
1.00671
1.0449
1.23719
1.69646
2.27905
2.893
3.21227
3.53489
3.58302
3.57568
3.54724
3.49367
3.40219
3.33444
3.32741
3.31919
3.31982
3.32764
3.33426
3.33846
3.34457
3.34853
3.34983
3.35103
3.35291
3.35198
3.34902
3.34756
3.34822
3.35113
3.35214
3.35288
3.35432
3.35725
3.3595
3.36005
3.36136
3.36374
3.36505
3.36586
3.36744
3.36929
3.36973
3.36976
3.37019
3.37114
3.37132
3.37048
3.36925
3.3679
3.36531
3.36071
3.3535
3.34244
3.32555
3.30433
3.28121
3.25781
3.24083
3.22546
3.21152
3.20426
3.19954
3.19469
3.18977
3.18545
3.18066
3.17448
3.16552
1
1
1
1
1
1
1
1
1
1
0.999999
1
0.999999
1.00118
1.02016
1.09739
1.40937
1.932
2.58429
3.0278
3.23232
3.38824
3.36739
3.36082
3.38029
3.39713
3.37851
3.36616
3.36159
3.35315
3.34684
3.34468
3.34326
3.34612
3.35304
3.36098
3.36301
3.36077
3.35798
3.35464
3.35325
3.35127
3.35132
3.35154
3.35189
3.35307
3.3531
3.35457
3.35725
3.35848
3.35886
3.36027
3.36395
3.36695
3.36847
3.36989
3.37159
3.37267
3.37321
3.37376
3.37283
3.37034
3.36533
3.35682
3.34411
3.32586
3.30397
3.28094
3.25595
3.2381
3.22192
3.2093
3.20375
3.19925
3.19416
3.18905
3.18399
3.17807
3.17115
3.16302
1
1
1
1
1
1
1
1
1
1
1
1
1
1
0.999993
1.00017
1.00551
1.05235
1.20401
1.64692
2.1983
2.86624
3.15041
3.3237
3.43738
3.42816
3.4193
3.37311
3.32097
3.30602
3.3153
3.33171
3.33866
3.34257
3.35093
3.3629
3.3719
3.37442
3.37328
3.36533
3.35943
3.36215
3.36271
3.35871
3.35637
3.3557
3.35463
3.35562
3.35819
3.35805
3.35642
3.35551
3.35726
3.36031
3.363
3.36502
3.36613
3.36644
3.36679
3.36751
3.36681
3.36501
3.36074
3.35261
3.33947
3.32008
3.29794
3.27628
3.25258
3.23416
3.21838
3.20785
3.20305
3.19851
3.19273
3.18785
3.18295
3.17649
3.16944
3.1619
1
1
1
1
1
1
1
1
1
1
1
1
1
1
0.999999
0.999999
0.999994
1.00005
1.00119
1.02183
1.11589
1.37781
1.94179
2.50467
3.08334
3.20251
3.28862
3.34037
3.30076
3.29295
3.31198
3.32649
3.32744
3.32363
3.32525
3.33429
3.34861
3.36173
3.36646
3.3658
3.3681
3.37293
3.3755
3.37606
3.37479
3.37296
3.3698
3.36569
3.3621
3.35995
3.35698
3.3547
3.35404
3.35496
3.35704
3.35892
3.3595
3.35972
3.36014
3.36095
3.36166
3.36068
3.35709
3.3497
3.3369
3.31807
3.29703
3.2756
3.25248
3.23201
3.21725
3.20961
3.2049
3.19882
3.19127
3.18595
3.1808
3.17369
3.16758
3.16109
1
1
1
1
1
1
1
1
1
1
1
1
1
1
1
1
1
1
1
1
1.00043
1.00558
1.06803
1.23995
1.65393
2.23951
2.83288
3.2239
3.29752
3.34545
3.36547
3.33078
3.32632
3.31763
3.30093
3.29934
3.30437
3.31544
3.33197
3.34142
3.34796
3.35684
3.36574
3.37457
3.37868
3.3781
3.37737
3.37515
3.3735
3.37288
3.37152
3.36885
3.36524
3.36145
3.36017
3.36079
3.36137
3.36134
3.36092
3.36102
3.36088
3.35902
3.35503
3.34785
3.33588
3.3186
3.29785
3.27559
3.25337
3.23337
3.21987
3.21265
3.20681
3.19889
3.1903
3.18521
3.18002
3.17255
3.16726
3.16079
1
1
1
1
1
1
1
1
1
1
1
1
1
1
1
1
1
1
1
1
1
0.999994
1.00017
1.00232
1.02536
1.16684
1.47748
2.04918
2.6004
3.08797
3.28387
3.32073
3.36406
3.35572
3.32644
3.32112
3.31367
3.30901
3.31396
3.31831
3.32136
3.32877
3.33657
3.34542
3.35627
3.36143
3.3642
3.3661
3.36708
3.36883
3.37021
3.37055
3.37054
3.3709
3.37093
3.37064
3.37006
3.36846
3.36588
3.36414
3.36242
3.35985
3.35503
3.34745
3.33505
3.31778
3.29702
3.27425
3.2527
3.23388
3.22087
3.21364
3.20688
3.19676
3.18868
3.1843
3.17946
3.17249
3.1673
3.16046
1
1
1
1
1
1
1
1
1
1
1
1
1
1
1
1
1
1
1
1
1
0.999999
0.999999
0.999997
1.00002
1.00136
1.01209
1.10617
1.37936
1.83465
2.37604
2.90241
3.24784
3.31679
3.35458
3.39035
3.39028
3.36914
3.3495
3.33472
3.32796
3.32575
3.32403
3.32663
3.33594
3.3422
3.34533
3.34844
3.34993
3.35065
3.35308
3.35874
3.36449
3.36901
3.37101
3.3718
3.37211
3.37175
3.37079
3.36955
3.36682
3.36267
3.35685
3.34765
3.33321
3.31533
3.29393
3.27059
3.2493
3.23172
3.21925
3.21172
3.20267
3.19237
3.18677
3.18278
3.17712
3.1691
3.16526
3.15926
1
1
1
1
1
1
1
1
1
1
1
1
1
1
1
1
1
1
1
1
1
1
1
1
1
1
0.999998
1.00067
1.00789
1.05274
1.27201
1.68598
2.27713
2.74118
3.12922
3.29887
3.36398
3.38705
3.38607
3.37676
3.37378
3.37198
3.36318
3.35563
3.35345
3.34752
3.34314
3.34492
3.34497
3.34326
3.34338
3.34719
3.35317
3.35874
3.36179
3.36351
3.36621
3.36805
3.36855
3.36845
3.36693
3.36299
3.35668
3.347
3.33279
3.31481
3.2934
3.27033
3.24914
3.23181
3.21891
3.20882
3.20156
3.19167
3.1834
3.17891
3.17504
3.17001
3.16481
3.15686
1
1
1
1
1
1
1
1
1
1
1
1
1
1
1
1
1
1
1
1
1
1
1
1
1
1
1
1
0.999998
1.00017
1.00488
1.03299
1.20808
1.63404
2.21246
2.65844
3.02425
3.26323
3.34343
3.35326
3.36819
3.38204
3.38538
3.38507
3.383
3.37532
3.37357
3.37495
3.37302
3.36475
3.35464
3.34981
3.35109
3.35632
3.35935
3.36038
3.36153
3.36296
3.36391
3.36434
3.36322
3.35945
3.35295
3.34288
3.32883
3.31121
3.2896
3.26635
3.24562
3.22945
3.21705
3.20723
3.19919
3.19134
3.1849
3.18011
3.17502
3.16924
3.16346
3.15534
1
1
1
1
1
1
1
1
1
1
1
1
1
1
1
1
1
1
1
1
1
1
1
1
1
1
1
1
1
1
0.999998
1.00008
1.00354
1.03186
1.15575
1.54831
2.13671
2.68689
2.98975
3.16345
3.24678
3.30512
3.34969
3.38112
3.3853
3.38054
3.37813
3.38227
3.38395
3.38132
3.37656
3.37288
3.37027
3.36941
3.36862
3.36759
3.36682
3.36599
3.3652
3.36393
3.3613
3.35691
3.35016
3.33972
3.32557
3.30794
3.28652
3.26376
3.24333
3.22743
3.21525
3.20535
3.19747
3.19071
3.18516
3.1804
3.17515
3.16944
3.16298
3.15381
1
1
1
1
1
1
1
1
1
1
1
1
1
1
1
1
1
1
1
1
1
1
1
1
1
1
1
1
1
1
1
1
0.999998
1.00007
1.00195
1.02751
1.13113
1.49546
2.09927
2.78699
3.01608
3.14685
3.23764
3.28973
3.31072
3.31194
3.32119
3.33918
3.35521
3.36414
3.36905
3.37378
3.37633
3.37346
3.37003
3.36883
3.36854
3.36847
3.36789
3.36609
3.36299
3.35834
3.3512
3.34085
3.32721
3.30918
3.28679
3.26345
3.24268
3.22674
3.21491
3.20541
3.19736
3.19031
3.18491
3.1803
3.17548
3.17019
3.16393
3.15345
1
1
1
1
1
1
1
1
1
1
1
1
1
1
1
1
1
1
1
1
1
1
1
1
1
1
1
1
1
1
1
1
1
1
0.999998
1.00007
1.00143
1.02513
1.13812
1.50789
2.10171
2.77874
3.17624
3.23902
3.29275
3.28116
3.2921
3.30281
3.311
3.32208
3.33375
3.34582
3.35565
3.36135
3.3635
3.36351
3.36423
3.36476
3.36391
3.36331
3.36195
3.35862
3.35209
3.34179
3.32809
3.30973
3.28664
3.2632
3.24322
3.22769
3.21543
3.20524
3.19661
3.18955
3.18455
3.18034
3.17637
3.1711
3.16566
3.15619
1
1
1
1
1
1
1
1
1
1
1
1
1
1
1
1
1
1
1
1
1
1
1
1
1
1
1
1
1
1
1
1
1
1
1
1
0.999998
1.00009
1.00177
1.02607
1.16093
1.5273
2.15754
2.80838
3.20113
3.29829
3.349
3.35743
3.33782
3.33183
3.33985
3.3466
3.34743
3.34976
3.35249
3.35295
3.35465
3.35664
3.35848
3.36043
3.3602
3.35734
3.35105
3.3409
3.32728
3.30911
3.28634
3.26338
3.24396
3.2285
3.21585
3.20545
3.19707
3.19072
3.18563
3.18025
3.17486
3.16877
3.16508
3.15789
1
1
1
1
1
1
1
1
1
1
1
1
1
1
1
1
1
1
1
1
1
1
1
1
1
1
1
1
1
1
1
1
1
1
1
1
1
1
0.999998
1.00011
1.00245
1.0274
1.19501
1.61251
2.25645
2.86532
3.21047
3.34284
3.36885
3.38317
3.38735
3.38855
3.38227
3.37203
3.36555
3.36321
3.36182
3.35971
3.35991
3.36069
3.3599
3.35672
3.35039
3.34058
3.32781
3.31069
3.28812
3.26435
3.24419
3.22798
3.21523
3.20549
3.19807
3.19168
3.18467
3.17691
3.16973
3.16389
3.16094
3.15465
1
1
1
1
1
1
1
1
1
1
1
1
1
1
1
1
1
1
1
1
1
1
1
1
1
1
1
1
1
1
1
1
1
1
1
1
1
1
1
1
0.999999
1.00013
1.00405
1.03813
1.27453
1.77761
2.3873
2.88878
3.20588
3.33362
3.37048
3.37525
3.38553
3.38191
3.37345
3.37165
3.37099
3.36767
3.36451
3.36319
3.3621
3.35915
3.35278
3.34268
3.32909
3.31052
3.28733
3.26308
3.242
3.22468
3.2117
3.20193
3.19443
3.18864
3.18199
3.17414
3.16466
3.15724
3.15322
3.14748
1
1
1
1
1
1
1
1
1
1
1
1
1
1
1
1
1
1
1
1
1
1
1
1
1
1
1
1
1
1
1
1
1
1
1
1
1
1
1
1
1
1
1
1.00026
1.00918
1.0615
1.34057
1.95848
2.69073
2.99744
3.17098
3.26553
3.32639
3.33574
3.34049
3.34701
3.35573
3.35857
3.3591
3.35989
3.36057
3.35876
3.35293
3.34249
3.32734
3.30841
3.28526
3.26186
3.24068
3.22226
3.20797
3.19709
3.18921
3.18376
3.17975
3.17476
3.16603
3.15498
3.14767
3.14041
1
1
1
1
1
1
1
1
1
1
1
1
1
1
1
1
1
1
1
1
1
1
1
1
1
1
1
1
1
1
1
1
1
1
1
1
1
1
1
1
1
1
1
1
1.00002
1.00056
1.01652
1.11565
1.4973
2.18735
2.92221
3.21699
3.27921
3.31028
3.31866
3.32649
3.34195
3.35129
3.35317
3.35372
3.35498
3.35386
3.3489
3.33904
3.32445
3.30643
3.28522
3.26277
3.24203
3.22365
3.2066
3.19267
3.18491
3.18114
3.17821
3.17477
3.16915
3.1613
3.15021
3.13643
1
1
1
1
1
1
1
1
1
1
1
1
1
1
1
1
1
1
1
1
1
1
1
1
1
1
1
1
1
1
1
1
1
1
1
1
1
1
1
1
1
1
1
1
1
0.999999
1.00008
1.00189
1.03399
1.22755
1.73944
2.45907
3.06617
3.31905
3.36258
3.36579
3.37618
3.37555
3.37259
3.36845
3.36378
3.35876
3.35128
3.34008
3.32513
3.30739
3.28677
3.26483
3.2453
3.2267
3.20719
3.19053
3.18071
3.17768
3.17524
3.17134
3.16762
3.16479
3.15911
3.14321
1
1
1
1
1
1
1
1
1
1
1
1
1
1
1
1
1
1
1
1
1
1
1
1
1
1
1
1
1
1
1
1
1
1
1
1
1
1
1
1
1
1
1
1
1
1
1
1
1.00034
1.00673
1.07401
1.42387
2.09028
2.69429
3.10385
3.30216
3.36581
3.36061
3.36388
3.36949
3.36995
3.36523
3.35585
3.3435
3.32717
3.30861
3.28782
3.2648
3.24546
3.22948
3.21169
3.19406
3.17917
3.17066
3.16655
3.16359
3.16196
3.16039
3.16052
3.15208
1
1
1
1
1
1
1
1
1
1
1
1
1
1
1
1
1
1
1
1
1
1
1
1
1
1
1
1
1
1
1
1
1
1
1
1
1
1
1
1
1
1
1
1
1
1
1
1
1
1.00002
1.00128
1.02394
1.16708
1.6938
2.52323
3.04158
3.18081
3.24689
3.30614
3.33862
3.35096
3.34951
3.34461
3.33818
3.32469
3.30676
3.28565
3.26222
3.24437
3.229
3.21466
3.20116
3.1854
3.16794
3.15807
3.1533
3.14957
3.14842
3.15142
3.152
1
1
1
1
1
1
1
1
1
1
1
1
1
1
1
1
1
1
1
1
1
1
1
1
1
1
1
1
1
1
1
1
1
1
1
1
1
1
1
1
1
1
1
1
1
1
1
1
1
1
1
1.00016
1.00514
1.07905
1.38766
2.11257
2.84409
3.25347
3.35018
3.35582
3.35487
3.34528
3.33938
3.33706
3.32895
3.31036
3.28723
3.26062
3.24048
3.22708
3.21491
3.20387
3.19347
3.18084
3.16332
3.14789
3.14078
3.13673
3.13479
3.14148
1
1
1
1
1
1
1
1
1
1
1
1
1
1
1
1
1
1
1
1
1
1
1
1
1
1
1
1
1
1
1
1
1
1
1
1
1
1
1
1
1
1
1
1
1
1
1
1
1
1
1
1
1.00002
1.00147
1.02303
1.23104
1.77667
2.49512
3.08994
3.33753
3.37291
3.3528
3.35403
3.35456
3.34525
3.32158
3.29252
3.26307
3.23591
3.21669
3.2075
3.20066
3.19125
3.1829
3.17812
3.16914
3.15189
3.13361
3.12636
3.12628
1
1
1
1
1
1
1
1
1
1
1
1
1
1
1
1
1
1
1
1
1
1
1
1
1
1
1
1
1
1
1
1
1
1
1
1
1
1
1
1
1
1
1
1
1
1
1
1
1
1
1
1
1
1
1.00025
1.00948
1.0901
1.52683
2.35968
3.00799
3.14713
3.22708
3.31221
3.34231
3.33757
3.31689
3.2896
3.26129
3.23418
3.20956
3.18844
3.17682
3.17244
3.17295
3.17573
3.18072
3.17581
3.15904
3.13249
3.12023
1
1
1
1
1
1
1
1
1
1
1
1
1
1
1
1
1
1
1
1
1
1
1
1
1
1
1
1
1
1
1
1
1
1
1
1
1
1
1
1
1
1
1
1
1
1
1
1
1
1
1
1
1
1
1
1.00005
1.00225
1.05233
1.3106
2.04614
2.82243
3.2618
3.34267
3.3322
3.32633
3.31221
3.28686
3.26614
3.24532
3.22059
3.19056
3.16216
3.14699
3.142
3.14807
3.16876
3.18253
3.18052
3.16284
3.12893
1
1
1
1
1
1
1
1
1
1
1
1
1
1
1
1
1
1
1
1
1
1
1
1
1
1
1
1
1
1
1
1
1
1
1
1
1
1
1
1
1
1
1
1
1
1
1
1
1
1
1
1
1
1
1
1
1.00001
1.00096
1.01791
1.21208
1.79248
2.57285
3.11658
3.32544
3.34104
3.32475
3.2965
3.27738
3.26724
3.25886
3.24112
3.20091
3.14973
3.12761
3.12536
3.13228
3.16197
3.17976
3.17675
3.14991
1
1
1
1
1
1
1
1
1
1
1
1
1
1
1
1
1
1
1
1
1
1
1
1
1
1
1
1
1
1
1
1
1
1
1
1
1
1
1
1
1
1
1
1
1
1
1
1
1
1
1
1
1
1
1
1
1
1
1.00023
1.00974
1.10928
1.62463
2.47299
3.05088
3.18641
3.22205
3.21265
3.20427
3.21874
3.25131
3.26047
3.24609
3.21209
3.15689
3.11781
3.11363
3.12085
3.15145
3.17197
3.16068
1
1
1
1
1
1
1
1
1
1
1
1
1
1
1
1
1
1
1
1
1
1
1
1
1
1
1
1
1
1
1
1
1
1
1
1
1
1
1
1
1
1
1
1
1
1
1
1
1
1
1
1
1
1
1
1
1
1
1
1.00008
1.00403
1.07431
1.43186
2.23112
3.01497
3.25865
3.23309
3.15312
3.13679
3.1527
3.21129
3.24618
3.2377
3.20978
3.15701
3.11415
3.10798
3.11455
3.14049
3.15412
1
1
1
1
1
1
1
1
1
1
1
1
1
1
1
1
1
1
1
1
1
1
1
1
1
1
1
1
1
1
1
1
1
1
1
1
1
1
1
1
1
1
1
1
1
1
1
1
1
1
1
1
1
1
1
1
1
1
1
1
1.00003
1.00191
1.04049
1.30966
2.0588
2.87617
3.22848
3.25398
3.18596
3.12383
3.12799
3.17567
3.22697
3.22741
3.20768
3.16533
3.1191
3.10396
3.1064
3.12668
1
1
1
1
1
1
1
1
1
1
1
1
1
1
1
1
1
1
1
1
1
1
1
1
1
1
1
1
1
1
1
1
1
1
1
1
1
1
1
1
1
1
1
1
1
1
1
1
1
1
1
1
1
1
1
1
1
1
1
1
1
1.00001
1.00087
1.02294
1.24966
1.88597
2.72295
3.20128
3.23553
3.18728
3.11259
3.11026
3.14501
3.19847
3.21109
3.20104
3.1699
3.12352
3.09914
3.10162
1
1
1
1
1
1
1
1
1
1
1
1
1
1
1
1
1
1
1
1
1
1
1
1
1
1
1
1
1
1
1
1
1
1
1
1
1
1
1
1
1
1
1
1
1
1
1
1
1
1
1
1
1
1
1
1
1
1
1
1
1
1
1
1.00046
1.01485
1.18274
1.77284
2.57612
3.14204
3.20623
3.19239
3.11558
3.09555
3.10978
3.15924
3.18847
3.1829
3.16713
3.12812
3.09554
1
1
1
1
1
1
1
1
1
1
1
1
1
1
1
1
1
1
1
1
1
1
1
1
1
1
1
1
1
1
1
1
1
1
1
1
1
1
1
1
1
1
1
1
1
1
1
1
1
1
1
1
1
1
1
1
1
1
1
1
1
1
1
1
1.00024
1.00991
1.13844
1.65066
2.41866
3.02618
3.18411
3.19942
3.15048
3.09519
3.09196
3.11223
3.15468
3.16507
3.14921
3.13298
1
1
1
1
1
1
1
1
1
1
1
1
1
1
1
1
1
1
1
1
1
1
1
1
1
1
1
1
1
1
1
1
1
1
1
1
1
1
1
1
1
1
1
1
1
1
1
1
1
1
1
1
1
1
1
1
1
1
1
1
1
1
1
1
1
1.00014
1.00639
1.09608
1.5457
2.2829
2.87701
3.16452
3.19874
3.17927
3.1079
3.075
3.08031
3.1189
3.14653
3.48591
1
1
1
1
1
1
1
1
1
1
1
1
1
1
1
1
1
1
1
1
1
1
1
1
1
1
1
1
1
1
1
1
1
1
1
1
1
1
1
1
1
1
1
1
1
1
1
1
1
1
1
1
1
1
1
1
1
1
1
1
1
1
1
1
1
1
1.00007
1.00402
1.06774
1.44745
2.15949
2.76163
3.14262
3.1841
3.17696
3.08598
3.05364
3.0823
3.27369
4.84908
1
1
1
1
1
1
1
1
1
1
1
1
1
1
1
1
1
1
1
1
1
1
1
1
1
1
1
1
1
1
1
1
1
1
1
1
1
1
1
1
1
1
1
1
1
1
1
1
1
1
1
1
1
1
1
1
1
1
1
1
1
1
1
1
1
1
1
1.00004
1.00252
1.04789
1.36187
2.05753
2.67215
3.10326
3.15447
3.17724
3.28837
3.6938
4.86957
6.89701
1
1
1
1
1
1
1
1
1
1
1
1
1
1
1
1
1
1
1
1
1
1
1
1
1
1
1
1
1
1
1
1
1
1
1
1
1
1
1
1
1
1
1
1
1
1
1
1
1
1
1
1
1
1
1
1
1
1
1
1
1
1
1
1
1
1
1
1
1.00002
1.00154
1.03523
1.29388
1.93936
2.66993
3.09371
3.72735
4.59159
5.64034
6.71765
7.50413
1
1
1
1
1
1
1
1
1
1
1
1
1
1
1
1
1
1
1
1
1
1
1
1
1
1
1
1
1
1
1
1
1
1
1
1
1
1
1
1
1
1
1
1
1
1
1
1
1
1
1
1
1
1
1
1
1
1
1
1
1
1
1
1
1
1
1
1
1
1.00001
1.00107
1.02543
1.26359
2.09057
3.64335
5.45893
7.04367
8.60304
8.89984
8.46139
)
;

boundaryField
{
    inlet
    {
        type            fixedValue;
        value           uniform 1;
    }
    outlet
    {
        type            zeroGradient;
    }
    bottom
    {
        type            symmetryPlane;
    }
    top
    {
        type            symmetryPlane;
    }
    obstacle
    {
        type            zeroGradient;
    }
    defaultFaces
    {
        type            empty;
    }
}


// ************************************************************************* //
