/*--------------------------------*- C++ -*----------------------------------*\
| =========                 |                                                 |
| \\      /  F ield         | OpenFOAM: The Open Source CFD Toolbox           |
|  \\    /   O peration     | Version:  2206                                  |
|   \\  /    A nd           | Website:  www.openfoam.com                      |
|    \\/     M anipulation  |                                                 |
\*---------------------------------------------------------------------------*/
FoamFile
{
    version     2.0;
    format      ascii;
    arch        "LSB;label=32;scalar=64";
    class       volScalarField;
    location    "0.14";
    object      p;
}
// * * * * * * * * * * * * * * * * * * * * * * * * * * * * * * * * * * * * * //

dimensions      [1 -1 -2 0 0 0 0];

internalField   nonuniform List<scalar> 
4800
(
1
1
1
1
1
1
1
1
1
1
1
1
1
1
1
1
1
1
1
1
1
1
1
1
1
1
1
1
1
1
1
1
1
1
1
1
1
1
1
1
1
1
1
1
1
1
1
1
1
1
1
1
1
1
1
1
1
1
1
1
1
1
1
1
1
1
1
1
1
1
1
1
1
1
1
1
1
1
1
1
1
1
1
1
1
1
1
1
1
1
1
1
1
1
1
1
1
1
1
1
1
1
1
1
1
1
1
1
1
1
1
1
1
1
1
1
1
1
1
1
1
1
1
1
1
1
1
1
1
1
1
1
1
1
1
1
1
1
1
1
1
1
1
1
1
1
1
1
1
1
1
1
1
1
1
1
1
1
1
1
1
1
1
1
1
1
1
1
1
1
1
1
1
1
1
1
1
1
1
1
1
1
1
1
1
1
1
1
1
1
1
1
1
1
1
1
1
1
1
1
1
1
1
1
1
1
1
1
1
1
1
1
1
1
1
1
1
1
1
1
1
1
1
1
1
1
1
1
1
1
1
1
1
1
1
1
1
1
1
1
1
1
1
1
1
1
1
1
1
1
1
1
1
1
1
1
1
1
1
1
1
1
1
1
1
1
1
1
1
1
1
1
1
1
1
1
1
1
1
1
1
1
1
1
1
1
1
1
1
1
1
1
1
1
1
1
1
1
1
1
1
1
1
1
1
1
1
1
1
1
1
1
1
1
1
1
1
1
1
1
1
1
1
1
1
1
1
1
1
1
1
1
1
1
1
1
1
1
1
1
1
1
1
1
1
1
1
1
1
1
1
1
1
1
1
1
1
1
1
1
1
1
1
1
1
1
1
1
1
1
1
1
1
1
1
1
1
1
1
1
1
1
1
1
1
1
1
1
1
1
1
1
1
1
1
1
1
1
1
1
1
1
1
1
1
1
1
1
1
1
1
1
1
1
1
1
1
1
1
1
1
1
1
1
1
1
1
1
1
1
1
1
1
1
1
1
1
1
1
1
1
1
1
1
1
1
1
1
1
1
1
1
1
1
1
1
1
1
1
1
1
1
1
1
1
1
1
1
1
1
1
1
1
1
1
1
1
1
1
1
1
1
1
1
1
1
1
1
1
1
1
1
1
1
1
1
1
1
1
1
1
1
1
1
1
1
1
1
1
1
1
1
1
1
1
1
1
1
1
1
1
1
1
1
1
1
1
1
1
1
1
1
1
1
1
1
1
1
1
1
1
1
1
1
1
1
1
1
1
1
1
1
1
1
1
1
1
1
1
1
1
1
1
1
1
1
1
1
1
1
1
1
1
1
1
1
1
1
1
1
1
1
1
1
1
1
1
1
1
1
1
1
1
1
1
1
1
1
1
1
1
1
1
1
1
1
1
1
1
1
1
1
1
1
1
1
1
1
1
1
1
1
1
1
1
1
1
1
1
1
1
1
1
1
1
1
1
1
1
1
1
1
1
1
1
1
1
1
1
1
1
1
1
1
1
1
1
1
1
1
1
1
1
1
1
1
1
1
1
1
1
1
1
1
1
1
1
1
1
1
1
1
1
1
1
1
1
1
1
1
1
1
1
1
1
1
1
1
1
1
1
1
1
1
1
1
1
1
1
1
1
1
1
1
1
1
1
1
1
1
1
1
1
1
1
1
1
1
1
1
1
1
1
1
1
1
1
1
1
1
1
1
1
1
1
1
1
1
1
1
1
1
1
1
1
1
1
1
1
1
1
1
1
1
1
1
1
1
1
1
1
1
1
1
1
1
1
1
1
1
1
1
1
1
1
1
1
1
1
1
1
1
1
1
1
1
1
1
1
1
1
1
1
1
1
1
1
1
1
1
1
1
1
1
1
1
1
1
1
1
1
1
1
1
1
1
1
1
1
1
1
1
1
1
1
1
1
1
1
1
1
1
1
1
1
1
1
1
1
1
1
1
1
1
1
1
1
1
1
1
1
1
1
1
1
1
1
1
1
1
1
1
1
1
1
1
1
1
1
1
1
1
1
1
1
1
1
1
1
1
1
1
1
1
1
1
1
1
1
1
1
1
1
1
1
1
1
1
1
1
1
1
1
1
1
1
1
1
1
1
1
1
1
1
1
1
1
1
1
1
1
1
1
1
1
1
1
1
1
1
1
1
1
1
1
1
1
1
1
1
1
1
1
1
1
1
1
1
1
1
1
1
1
1
1
1
1
1
1
1
1
1
1
1
1
1
1
1
1
1
1
1
1
1
1
1
1
1
1
1
1
1
1
1
1
1
1
1
1
1
1
1
1
1
1
1
1
1
1
1
1
1
1
1
1
1
1
1
1
1
1
1
1
1
1
1
1
1
1
1
1
1
1
1
1
1
1
1
1
1
1
1
1
1
1
1
1
1
1
1
1
1
1
1
1
1
1
1
1
1
1
1
1
1
1
1
1
1
1
1
1
1
1
1
1
1
1
1
1
1
1
1
1
1
1
1
1
1
1
1
1
1
1
1
1
1
1
1
1
1
1
1
1
1
1
1
1
1
1
1
1
1
1
1
1
1
1
1
1
1
1
1
1
1
1
1
1
1
1
1
1
1
1
1
1
1
1
1
1
1
1
1
1
1
1
1
1
1
1
1
1
1
1
1
1
1
1
1
1
1
1
1
1
1
1
1
1
1
1
1
1
1
1
1
1
1
1
1
1
1
1
1
1
1
1
1
1
1
1
1
1
1
1
1
1
1
1
1
1
1
1
1
1
1
1
1
1
1
1
1
1
1
1
1
1
1
1
1
1
1
1
1
1
1
1
1
1
1
1
1
1
1
1
1
1
1
1
1
1
1
1
1
1
1
1
1
1
1
1
1
1
1
1
1
1
1
1
1
1
1
1
1
1
1
1
1
1
1
1
1
1
1
1
1
1
1
1
1
1
1
1
1
1
1
1
1
1
1
1
1
1
1
1
1
1
1
1
1
1
1
1
1
1
1
1
1
1
1
1
1
1
1
1
1
1
1
1
1
1
1
1
1
1
1
1
1
1
1
1
1
1
1
1
1
1
1
1
1
1
1
1
1
1
1
1
1
1
1
1
1
1
1
1
1
1
1
1
1
1
1
1
1
1
1
1
1
1
1
1
1
1
1
1
1
1
1
1
1
1
1
1
1
1
1
1
1
1
1
1
1
1
1
1
1
1
1
1
1
1
1
1
1
1
1
1
1
1
1
1
1
1
1
1
1
1
1
1
1
1
1
1
1
1
1
1
1
1
1
1
1
1
1
1
1
1
1
1
1
1
1
1
1
1
1
1
1
1
1
1
1
1
1
1
1
1
1
1
1
1
1
1
1
1
1
1
1
1
1
1
1
1
1
1
1
1
1
1
1
1
1
1
1
1
1
1
1
1
1
1
1
1
1
1
1
1
1
1
1
1
1
1
1
1
1
1
1
1
1
1
1
1
1
1
1
1
1
1
1
1
1
1
1
1
1
1
1
1
1
1
1
1
1
1
1
1
1
1
1
1
1
1
1
1
1
1
1
1
1
1
1
1
1
1
1
1
1
1
1
1
1
1
1
1
1
1
1
1
1
1
1
1
1
1
1
1
1
1
1
1
1
1
1
1
1
1
1
1
1
1
1
1
1
1
1
1
1
1
1
1
1
1.26677
1.70258
2.17375
2.68556
3.3234
3.80338
4.27621
4.79589
4.99545
5.26982
5.3684
5.30207
5.08997
4.72864
4.34421
4.03482
3.8905
3.7438
3.61199
3.60609
3.61919
3.65318
3.69953
3.73522
3.77485
3.80851
3.82664
3.83656
3.83483
3.83698
3.85296
3.86677
3.86877
3.86348
3.85004
3.83346
3.82519
3.82803
3.83531
3.84428
3.85428
3.86489
3.87501
3.88094
3.88318
3.88179
3.87413
3.86832
3.86441
3.85809
3.85352
3.85172
3.84913
3.84475
3.84148
3.84212
3.84715
3.85545
3.86542
3.87442
3.88053
3.88505
3.88812
3.88879
3.88723
3.88285
3.87999
3.8789
3.87812
3.8769
3.87582
3.87464
3.87245
3.86869
3.8646
3.86207
3.86106
3.86097
3.86175
3.86601
0.999625
1.0031
1.04823
1.10945
1.21613
1.45451
1.69982
2.06596
2.45923
2.88614
3.29747
3.57421
3.80848
3.88905
4.11286
4.18207
4.12037
4.08247
3.99137
3.93249
3.87774
3.84066
3.81172
3.77007
3.75047
3.75198
3.76801
3.79202
3.80432
3.82097
3.84669
3.86041
3.86144
3.85746
3.85125
3.84766
3.84744
3.84866
3.85031
3.84999
3.84713
3.84606
3.84868
3.85338
3.85573
3.85578
3.85738
3.86069
3.86444
3.86985
3.87276
3.87369
3.87238
3.86836
3.863
3.85978
3.86099
3.86267
3.86317
3.86398
3.86541
3.86609
3.86697
3.86785
3.86828
3.86946
3.87164
3.87425
3.87707
3.87932
3.87987
3.87972
3.87854
3.8761
3.87322
3.87229
3.87225
3.87233
3.8732
3.87477
1
1
0.999999
1
0.999744
1.00038
1.00525
1.02927
1.10999
1.25905
1.6019
2.0856
2.7707
3.53704
3.99217
4.39951
4.39292
4.35645
4.30682
4.22875
4.13268
3.97123
3.84775
3.76054
3.73945
3.7434
3.75652
3.77502
3.78896
3.802
3.81386
3.82279
3.83503
3.84922
3.85679
3.85989
3.86523
3.87206
3.8737
3.87106
3.86255
3.85117
3.84123
3.83596
3.83365
3.83183
3.83261
3.83871
3.85199
3.86933
3.88097
3.88371
3.88275
3.88047
3.87775
3.87463
3.87429
3.87458
3.87254
3.86824
3.86452
3.8617
3.8587
3.85643
3.85561
3.85602
3.85758
3.86178
3.86904
3.87532
3.87804
3.87946
3.88035
3.88012
3.878
3.87716
3.87751
3.87875
3.88072
3.88187
1
1
1
1
1
1
1
0.999978
1.00001
0.999782
1.00328
1.02849
1.13588
1.51234
2.05867
2.88672
3.43048
3.78007
4.04116
4.02108
4.03624
4.09156
4.07396
4.00988
3.93823
3.89661
3.85709
3.82821
3.77862
3.74996
3.74892
3.75642
3.77847
3.81186
3.83913
3.85794
3.87599
3.88663
3.88856
3.88544
3.87663
3.86402
3.84909
3.84026
3.83808
3.83595
3.83365
3.83313
3.83891
3.85132
3.86382
3.87327
3.88004
3.88349
3.88437
3.88391
3.88343
3.88223
3.8787
3.87467
3.87182
3.86868
3.86379
3.85889
3.85709
3.85734
3.85811
3.86029
3.86506
3.86915
3.87062
3.8714
3.87165
3.87175
3.87256
3.87481
3.87804
3.88208
3.88576
3.88682
1
1
1
1
1
1
1
1
1
1
0.999995
1
0.999844
1.00199
1.02763
1.15171
1.57729
2.11668
2.84704
3.36147
3.79599
4.13611
4.15196
4.1463
4.11777
4.07149
3.98555
3.88687
3.81356
3.76874
3.75697
3.76039
3.77321
3.79553
3.81321
3.82399
3.83432
3.84484
3.85896
3.86958
3.87343
3.87225
3.86968
3.86815
3.86593
3.86083
3.85097
3.84583
3.84748
3.85309
3.85619
3.85612
3.85561
3.85571
3.85693
3.8592
3.86324
3.86959
3.8746
3.87691
3.8774
3.87676
3.87487
3.87082
3.86826
3.86803
3.86862
3.87048
3.87432
3.876
3.87549
3.87406
3.87051
3.86687
3.86552
3.86595
3.8683
3.87265
3.87815
3.88052
1
1
1
1
1
1
1
1
1
1
1
1
0.999999
0.999995
1.00001
0.999896
1.00459
1.03499
1.17408
1.6178
2.18267
2.90898
3.3296
3.70988
3.91779
3.9213
3.93287
3.96877
3.95571
3.90049
3.86529
3.84977
3.83272
3.82111
3.7992
3.78046
3.77649
3.78255
3.80405
3.83098
3.85073
3.8642
3.87747
3.88535
3.88623
3.8852
3.88119
3.87046
3.86291
3.86113
3.8593
3.8577
3.85177
3.84547
3.84194
3.84184
3.84437
3.85027
3.85879
3.86613
3.87146
3.87531
3.87729
3.87799
3.87804
3.87889
3.8807
3.88413
3.88693
3.88637
3.88483
3.88138
3.87523
3.86922
3.86593
3.86492
3.86541
3.86819
3.87285
3.87535
1
1
1
1
1
1
1
1
1
1
1
1
1
1
1
0.999998
0.999999
0.999985
1
1.00723
1.04725
1.23333
1.69925
2.26938
2.95327
3.36526
3.78145
3.96741
3.98076
3.98075
3.96593
3.93791
3.89123
3.85842
3.8207
3.78227
3.76646
3.76703
3.77686
3.79577
3.81309
3.83011
3.85215
3.87457
3.88667
3.89034
3.88986
3.88528
3.88414
3.88371
3.87854
3.86678
3.8586
3.85168
3.84561
3.84375
3.84473
3.84711
3.85116
3.85687
3.86262
3.86702
3.86905
3.86993
3.87127
3.8744
3.87945
3.88434
3.88592
3.88542
3.88377
3.88023
3.87452
3.86768
3.86335
3.86189
3.86173
3.86401
3.86912
3.87117
1
1
1
1
1
1
1
1
1
1
1
1
1
1
1
1
1
1
0.999999
1
0.999962
1.00042
1.01264
1.06291
1.30752
1.79775
2.42044
3.0034
3.37654
3.7159
3.83035
3.85751
3.89711
3.91623
3.9088
3.87663
3.84829
3.82563
3.80534
3.79943
3.80097
3.80546
3.81609
3.82769
3.83604
3.84766
3.86071
3.87117
3.87801
3.88367
3.887
3.88556
3.88345
3.88056
3.87424
3.86788
3.86301
3.85885
3.85677
3.85715
3.86051
3.86077
3.85976
3.8582
3.85807
3.86018
3.86498
3.87028
3.87413
3.87593
3.8759
3.87468
3.87209
3.86832
3.86595
3.86518
3.86624
3.87021
3.87559
3.87681
1
1
1
1
1
1
1
1
1
1
1
1
1
1
1
1
1
1
1
1
0.999999
0.999998
1.00001
0.99997
1.00146
1.02077
1.09849
1.42118
1.94491
2.64332
3.12472
3.4791
3.81036
3.86864
3.89136
3.90245
3.90172
3.88523
3.86174
3.85065
3.83932
3.83022
3.81914
3.80712
3.80361
3.80739
3.81523
3.82319
3.83421
3.85026
3.86849
3.88106
3.88574
3.88818
3.88885
3.88869
3.888
3.88448
3.87812
3.87173
3.86485
3.85967
3.85501
3.85086
3.84939
3.85028
3.85421
3.85922
3.86438
3.86891
3.87117
3.87154
3.87182
3.87197
3.87173
3.87163
3.87261
3.87736
3.88305
3.88365
1
1
1
1
1
1
1
1
1
1
1
1
1
1
1
1
1
1
1
1
1
1
1
0.999999
0.999999
0.999992
1.00005
1.00473
1.03673
1.17465
1.61857
2.1666
2.84711
3.22075
3.52007
3.73129
3.84482
3.86211
3.87718
3.90323
3.90862
3.90355
3.88539
3.86384
3.84102
3.81658
3.80315
3.80626
3.81618
3.82853
3.83996
3.8457
3.85083
3.85951
3.86882
3.87679
3.88172
3.8811
3.8804
3.88185
3.88245
3.87995
3.87331
3.86435
3.85723
3.85388
3.85496
3.85999
3.86576
3.86929
3.86999
3.86928
3.8681
3.86838
3.86975
3.87171
3.87565
3.88104
3.88583
3.88621
1
1
1
1
1
1
1
1
1
1
1
1
1
1
1
1
1
1
1
1
1
1
1
1
1
1
0.999999
1
0.999988
1.00053
1.01449
1.07092
1.29258
1.81639
2.48382
3.05716
3.36154
3.61956
3.7549
3.85158
3.89628
3.907
3.90582
3.89438
3.88216
3.86839
3.85651
3.84832
3.84704
3.84586
3.84203
3.83835
3.83731
3.83832
3.84162
3.84435
3.84843
3.85582
3.86406
3.87271
3.87922
3.88048
3.87823
3.87411
3.87236
3.8711
3.86993
3.87091
3.87239
3.87236
3.87123
3.86949
3.8673
3.86598
3.86653
3.86746
3.87014
3.87517
3.88005
3.88153
1
1
1
1
1
1
1
1
1
1
1
1
1
1
1
1
1
1
1
1
1
1
1
1
1
1
1
1
0.999999
0.999999
0.999999
1.00005
1.00256
1.03407
1.14259
1.53646
2.14167
2.84713
3.23374
3.5045
3.65822
3.762
3.82728
3.85972
3.88125
3.88645
3.88449
3.88427
3.89436
3.9007
3.89847
3.88477
3.86226
3.84377
3.83632
3.83353
3.83231
3.83487
3.84363
3.85353
3.86051
3.86493
3.8706
3.87217
3.87142
3.87252
3.87556
3.87913
3.88184
3.88242
3.88136
3.87857
3.87331
3.86641
3.86286
3.86274
3.86343
3.86621
3.87046
3.87324
1
1
1
1
1
1
1
1
1
1
1
1
1
1
1
1
1
1
1
1
1
1
1
1
1
1
1
1
1
1
1
1
1
1.00001
1.00051
1.01377
1.0833
1.30189
1.85019
2.58213
3.21143
3.44409
3.60531
3.68094
3.75199
3.80199
3.83841
3.87419
3.89698
3.91006
3.91067
3.90329
3.89631
3.89237
3.88387
3.86891
3.85171
3.84149
3.83995
3.84617
3.85228
3.85433
3.85431
3.85526
3.85763
3.86279
3.87017
3.87538
3.87827
3.87999
3.88037
3.88053
3.87941
3.87545
3.87063
3.86702
3.86511
3.86469
3.86644
3.87025
1
1
1
1
1
1
1
1
1
1
1
1
1
1
1
1
1
1
1
1
1
1
1
1
1
1
1
1
1
1
1
1
1
1
1
0.999995
1.00017
1.00345
1.04936
1.19809
1.64579
2.32078
3.12832
3.44743
3.57849
3.68837
3.69935
3.74322
3.78542
3.83813
3.8643
3.87082
3.88016
3.88718
3.89155
3.8901
3.88719
3.88321
3.88143
3.87919
3.87275
3.86353
3.85514
3.85043
3.85026
3.85368
3.8583
3.86221
3.86544
3.86876
3.87187
3.87335
3.87343
3.87321
3.87294
3.8721
3.87097
3.86943
3.8678
3.86915
1
1
1
1
1
1
1
1
1
1
1
1
1
1
1
1
1
1
1
1
1
1
1
1
1
1
1
1
1
1
1
1
1
1
1
0.999999
0.999999
0.999994
1.00008
1.00144
1.02627
1.14708
1.49373
2.12544
2.89914
3.53458
3.66071
3.71564
3.74567
3.75357
3.77472
3.78258
3.78898
3.80671
3.83907
3.87374
3.88601
3.89094
3.8973
3.90071
3.89603
3.89018
3.88306
3.87385
3.86737
3.86133
3.85774
3.85743
3.85835
3.85958
3.86042
3.86141
3.86289
3.86531
3.86803
3.86997
3.87079
3.87045
3.86845
3.86771
1
1
1
1
1
1
1
1
1
1
1
1
1
1
1
1
1
1
1
1
1
1
1
1
1
1
1
1
1
1
1
1
1
1
1
1
1
0.999999
0.999999
0.999997
1.00002
1.00088
1.01255
1.11559
1.4034
2.04878
2.80068
3.46561
3.75551
3.78029
3.80341
3.78828
3.7723
3.77245
3.78299
3.80951
3.83292
3.84638
3.85889
3.87289
3.88282
3.88373
3.87985
3.8781
3.87944
3.88231
3.88127
3.87572
3.86899
3.86423
3.86122
3.85863
3.85818
3.8606
3.86358
3.86737
3.86957
3.87032
3.8689
3.86562
1
1
1
1
1
1
1
1
1
1
1
1
1
1
1
1
1
1
1
1
1
1
1
1
1
1
1
1
1
1
1
1
1
1
1
1
1
1
1
1
1
1
0.999997
1.0007
1.00842
1.09723
1.38711
2.00341
2.74346
3.42527
3.76069
3.82904
3.84867
3.86667
3.84102
3.82313
3.82449
3.82957
3.83073
3.83209
3.83442
3.83412
3.83737
3.85026
3.86658
3.87676
3.8802
3.87894
3.8768
3.87543
3.87258
3.86623
3.86103
3.8616
3.86432
3.8695
3.87408
3.87656
3.87726
3.87088
1
1
1
1
1
1
1
1
1
1
1
1
1
1
1
1
1
1
1
1
1
1
1
1
1
1
1
1
1
1
1
1
1
1
1
1
1
1
1
1
1
1
1
1
0.999995
1.00063
1.00809
1.08732
1.39549
1.98375
2.74428
3.36176
3.71783
3.86251
3.88192
3.90454
3.91321
3.9055
3.87931
3.84762
3.82438
3.81393
3.81292
3.81965
3.83492
3.85284
3.866
3.87477
3.87753
3.87817
3.87311
3.86529
3.86282
3.86332
3.86539
3.87082
3.87896
3.88418
3.88622
3.88195
1
1
1
1
1
1
1
1
1
1
1
1
1
1
1
1
1
1
1
1
1
1
1
1
1
1
1
1
1
1
1
1
1
1
1
1
1
1
1
1
1
1
1
1
0.999999
1
0.999997
1.00057
1.00898
1.07838
1.43507
2.10663
2.8059
3.36691
3.67906
3.849
3.91763
3.92989
3.92054
3.90141
3.89108
3.87426
3.85462
3.8401
3.83835
3.84998
3.86147
3.86311
3.86459
3.86532
3.86324
3.8628
3.86324
3.86381
3.86528
3.86874
3.87262
3.87783
3.88209
3.88342
1
1
1
1
1
1
1
1
1
1
1
1
1
1
1
1
1
1
1
1
1
1
1
1
1
1
1
1
1
1
1
1
1
1
1
1
1
1
1
1
1
1
1
1
1
1
0.999999
1
0.999998
1.00058
1.01332
1.10397
1.50102
2.25849
2.98856
3.40244
3.67456
3.8342
3.85251
3.87202
3.89423
3.90291
3.90027
3.88481
3.88179
3.88447
3.87914
3.87054
3.86649
3.86442
3.86233
3.86195
3.86153
3.8604
3.85896
3.85882
3.86031
3.86291
3.86864
3.87517
1
1
1
1
1
1
1
1
1
1
1
1
1
1
1
1
1
1
1
1
1
1
1
1
1
1
1
1
1
1
1
1
1
1
1
1
1
1
1
1
1
1
1
1
1
1
1
1
1
0.999999
1.00001
1.00103
1.02112
1.14249
1.63594
2.46629
3.2324
3.57118
3.65609
3.70022
3.77679
3.82664
3.85746
3.87991
3.89451
3.89871
3.89238
3.88241
3.87486
3.86871
3.86766
3.87019
3.874
3.87321
3.86839
3.86075
3.85671
3.85751
3.85937
3.86394
1
1
1
1
1
1
1
1
1
1
1
1
1
1
1
1
1
1
1
1
1
1
1
1
1
1
1
1
1
1
1
1
1
1
1
1
1
1
1
1
1
1
1
1
1
1
1
1
1
1
1
0.999999
1.00004
1.00197
1.03887
1.22823
1.79668
2.7454
3.51904
3.65737
3.72296
3.74291
3.77434
3.81017
3.84699
3.86798
3.87223
3.86793
3.85879
3.85123
3.85455
3.86403
3.8731
3.8799
3.88102
3.88059
3.87574
3.86613
3.85822
3.85936
1
1
1
1
1
1
1
1
1
1
1
1
1
1
1
1
1
1
1
1
1
1
1
1
1
1
1
1
1
1
1
1
1
1
1
1
1
1
1
1
1
1
1
1
1
1
1
1
1
1
1
1
1
0.999998
1.00019
1.00471
1.07012
1.36368
2.16071
3.03723
3.63042
3.80894
3.82266
3.85487
3.85712
3.85578
3.85731
3.85025
3.83503
3.82122
3.819
3.82311
3.83671
3.8613
3.88125
3.88697
3.8865
3.87974
3.87132
3.86273
1
1
1
1
1
1
1
1
1
1
1
1
1
1
1
1
1
1
1
1
1
1
1
1
1
1
1
1
1
1
1
1
1
1
1
1
1
1
1
1
1
1
1
1
1
1
1
1
1
1
1
1
1
1
0.999999
1
1.00067
1.01226
1.17553
1.65171
2.49745
3.27006
3.71169
3.89357
3.9178
3.92021
3.92208
3.91435
3.89152
3.85496
3.82293
3.81455
3.81779
3.83393
3.8539
3.86873
3.87957
3.88279
3.87946
3.86836
1
1
1
1
1
1
1
1
1
1
1
1
1
1
1
1
1
1
1
1
1
1
1
1
1
1
1
1
1
1
1
1
1
1
1
1
1
1
1
1
1
1
1
1
1
1
1
1
1
1
1
1
1
1
1
1
0.999999
1.00004
1.00378
1.04092
1.32029
2.07352
2.95626
3.43201
3.71404
3.84086
3.88783
3.92053
3.93102
3.92217
3.88782
3.8604
3.84999
3.84692
3.85396
3.86419
3.86563
3.87108
3.87336
3.87156
1
1
1
1
1
1
1
1
1
1
1
1
1
1
1
1
1
1
1
1
1
1
1
1
1
1
1
1
1
1
1
1
1
1
1
1
1
1
1
1
1
1
1
1
1
1
1
1
1
1
1
1
1
1
1
1
1
1
1
1.00032
1.01219
1.11996
1.66382
2.59244
3.41803
3.57435
3.65709
3.77109
3.84743
3.8783
3.8849
3.8849
3.88124
3.88083
3.88176
3.87523
3.86648
3.8638
3.86467
3.87088
1
1
1
1
1
1
1
1
1
1
1
1
1
1
1
1
1
1
1
1
1
1
1
1
1
1
1
1
1
1
1
1
1
1
1
1
1
1
1
1
1
1
1
1
1
1
1
1
1
1
1
1
1
1
1
1
1
1
1
0.999999
1.00004
1.00243
1.05439
1.3422
2.1046
3.21184
3.62183
3.73491
3.75106
3.77439
3.80957
3.83478
3.86122
3.88354
3.88671
3.87999
3.86695
3.85395
3.85152
3.86407
1
1
1
1
1
1
1
1
1
1
1
1
1
1
1
1
1
1
1
1
1
1
1
1
1
1
1
1
1
1
1
1
1
1
1
1
1
1
1
1
1
1
1
1
1
1
1
1
1
1
1
1
1
1
1
1
1
1
1
1
1
1
1.00057
1.01672
1.14657
1.78248
2.82766
3.55462
3.78682
3.82889
3.83099
3.82819
3.84212
3.86929
3.88336
3.87957
3.86235
3.83834
3.81972
3.82784
1
1
1
1
1
1
1
1
1
1
1
1
1
1
1
1
1
1
1
1
1
1
1
1
1
1
1
1
1
1
1
1
1
1
1
1
1
1
1
1
1
1
1
1
1
1
1
1
1
1
1
1
1
1
1
1
1
1
1
1
1
1
0.999999
1.0001
1.00327
1.09058
1.53015
2.41369
3.27412
3.76889
3.89971
3.86992
3.87107
3.88833
3.90803
3.91948
3.90919
3.87589
3.82621
3.80563
1
1
1
1
1
1
1
1
1
1
1
1
1
1
1
1
1
1
1
1
1
1
1
1
1
1
1
1
1
1
1
1
1
1
1
1
1
1
1
1
1
1
1
1
1
1
1
1
1
1
1
1
1
1
1
1
1
1
1
1
1
1
1
1
1.00001
1.00216
1.0334
1.33955
2.15965
3.21755
3.56163
3.6771
3.76022
3.81577
3.87075
3.91636
3.93362
3.93077
3.91248
3.84565
1
1
1
1
1
1
1
1
1
1
1
1
1
1
1
1
1
1
1
1
1
1
1
1
1
1
1
1
1
1
1
1
1
1
1
1
1
1
1
1
1
1
1
1
1
1
1
1
1
1
1
1
1
1
1
1
1
1
1
1
1
1
1
1
1
1
1.0004
1.01937
1.1867
1.89413
2.97937
3.74304
3.76661
3.70398
3.70941
3.74965
3.84589
3.93302
3.94607
3.92359
1
1
1
1
1
1
1
1
1
1
1
1
1
1
1
1
1
1
1
1
1
1
1
1
1
1
1
1
1
1
1
1
1
1
1
1
1
1
1
1
1
1
1
1
1
1
1
1
1
1
1
1
1
1
1
1
1
1
1
1
1
1
1
1
1
1
1
1.00018
1.00715
1.12361
1.71194
2.82631
3.65015
3.82426
3.7941
3.70646
3.71865
3.79946
3.91588
3.94122
1
1
1
1
1
1
1
1
1
1
1
1
1
1
1
1
1
1
1
1
1
1
1
1
1
1
1
1
1
1
1
1
1
1
1
1
1
1
1
1
1
1
1
1
1
1
1
1
1
1
1
1
1
1
1
1
1
1
1
1
1
1
1
1
1
1
1
1
1.00006
1.00371
1.09037
1.55645
2.59476
3.59107
3.82985
3.83101
3.7333
3.72298
3.77184
3.88807
1
1
1
1
1
1
1
1
1
1
1
1
1
1
1
1
1
1
1
1
1
1
1
1
1
1
1
1
1
1
1
1
1
1
1
1
1
1
1
1
1
1
1
1
1
1
1
1
1
1
1
1
1
1
1
1
1
1
1
1
1
1
1
1
1
1
1
1
1
1.00002
1.00223
1.05243
1.45805
2.40724
3.44306
3.82842
3.87027
3.79159
3.73561
3.78333
1
1
1
1
1
1
1
1
1
1
1
1
1
1
1
1
1
1
1
1
1
1
1
1
1
1
1
1
1
1
1
1
1
1
1
1
1
1
1
1
1
1
1
1
1
1
1
1
1
1
1
1
1
1
1
1
1
1
1
1
1
1
1
1
1
1
1
1
1
1
1.00001
1.00118
1.03574
1.37232
2.28431
3.32399
3.84205
3.88713
3.83181
3.76297
1
1
1
1
1
1
1
1
1
1
1
1
1
1
1
1
1
1
1
1
1
1
1
1
1
1
1
1
1
1
1
1
1
1
1
1
1
1
1
1
1
1
1
1
1
1
1
1
1
1
1
1
1
1
1
1
1
1
1
1
1
1
1
1
1
1
1
1
1
1
1
1
1.00073
1.02709
1.33007
2.21465
3.26244
3.85008
3.87784
3.8215
1
1
1
1
1
1
1
1
1
1
1
1
1
1
1
1
1
1
1
1
1
1
1
1
1
1
1
1
1
1
1
1
1
1
1
1
1
1
1
1
1
1
1
1
1
1
1
1
1
1
1
1
1
1
1
1
1
1
1
1
1
1
1
1
1
1
1
1
1
1
1
1
1
1.00058
1.02363
1.30474
2.15182
3.32778
3.82882
3.84841
1
1
1
1
1
1
1
1
1
1
1
1
1
1
1
1
1
1
1
1
1
1
1
1
1
1
1
1
1
1
1
1
1
1
1
1
1
1
1
1
1
1
1
1
1
1
1
1
1
1
1
1
1
1
1
1
1
1
1
1
1
1
1
1
1
1
1
1
1
1
1
1
1
1
1.00052
1.0217
1.28598
2.18626
3.2823
3.79438
1
1
1
1
1
1
1
1
1
1
1
1
1
1
1
1
1
1
1
1
1
1
1
1
1
1
1
1
1
1
1
1
1
1
1
1
1
1
1
1
1
1
1
1
1
1
1
1
1
1
1
1
1
1
1
1
1
1
1
1
1
1
1
1
1
1
1
1
1
1
1
1
1
1
1
1.00047
1.02255
1.27836
2.1565
3.66555
1
1
1
1
1
1
1
1
1
1
1
1
1
1
1
1
1
1
1
1
1
1
1
1
1
1
1
1
1
1
1
1
1
1
1
1
1
1
1
1
1
1
1
1
1
1
1
1
1
1
1
1
1
1
1
1
1
1
1
1
1
1
1
1
1
1
1
1
1
1
1
1
1
1
1
1
1.00059
1.02003
1.32524
3.93692
)
;

boundaryField
{
    inlet
    {
        type            fixedValue;
        value           uniform 1;
    }
    outlet
    {
        type            zeroGradient;
    }
    bottom
    {
        type            symmetryPlane;
    }
    top
    {
        type            symmetryPlane;
    }
    obstacle
    {
        type            zeroGradient;
    }
    defaultFaces
    {
        type            empty;
    }
}


// ************************************************************************* //
