/*--------------------------------*- C++ -*----------------------------------*\
| =========                 |                                                 |
| \\      /  F ield         | OpenFOAM: The Open Source CFD Toolbox           |
|  \\    /   O peration     | Version:  2206                                  |
|   \\  /    A nd           | Website:  www.openfoam.com                      |
|    \\/     M anipulation  |                                                 |
\*---------------------------------------------------------------------------*/
FoamFile
{
    version     2.0;
    format      ascii;
    arch        "LSB;label=32;scalar=64";
    class       volScalarField;
    location    "0.14";
    object      T;
}
// * * * * * * * * * * * * * * * * * * * * * * * * * * * * * * * * * * * * * //

dimensions      [0 0 0 1 0 0 0];

internalField   nonuniform List<scalar> 
4800
(
1
1
1
1
1
1
1
1
1
1
1
1
1
1
1
1
1
1
1
1
1
1
1
1
1
1
1
1
1
1
1
1
1
1
1
1
1
1
1
1
1
1
1
1
1
1
1
1
1
1
1
1
1
1
1
1
1
1
1
1
1
1
1
1
1
1
1
1
1
1
1
1
1
1
1
1
1
1
1
1
1
1
1
1
1
1
1
1
1
1
1
1
1
1
1
1
1
1
1
1
1
1
1
1
1
1
1
1
1
1
1
1
1
1
1
1
1
1
1
1
1
1
1
1
1
1
1
1
1
1
1
1
1
1
1
1
1
1
1
1
1
1
1
1
1
1
1
1
1
1
1
1
1
1
1
1
1
1
1
1
1
1
1
1
1
1
1
1
1
1
1
1
1
1
1
1
1
1
1
1
1
1
1
1
1
1
1
1
1
1
1
1
1
1
1
1
1
1
1
1
1
1
1
1
1
1
1
1
1
1
1
1
1
1
1
1
1
1
1
1
1
1
1
1
1
1
1
1
1
1
1
1
1
1
1
1
1
1
1
1
1
1
1
1
1
1
1
1
1
1
1
1
1
1
1
1
1
1
1
1
1
1
1
1
1
1
1
1
1
1
1
1
1
1
1
1
1
1
1
1
1
1
1
1
1
1
1
1
1
1
1
1
1
1
1
1
1
1
1
1
1
1
1
1
1
1
1
1
1
1
1
1
1
1
1
1
1
1
1
1
1
1
1
1
1
1
1
1
1
1
1
1
1
1
1
1
1
1
1
1
1
1
1
1
1
1
1
1
1
1
1
1
1
1
1
1
1
1
1
1
1
1
1
1
1
1
1
1
1
1
1
1
1
1
1
1
1
1
1
1
1
1
1
1
1
1
1
1
1
1
1
1
1
1
1
1
1
1
1
1
1
1
1
1
1
1
1
1
1
1
1
1
1
1
1
1
1
1
1
1
1
1
1
1
1
1
1
1
1
1
1
1
1
1
1
1
1
1
1
1
1
1
1
1
1
1
1
1
1
1
1
1
1
1
1
1
1
1
1
1
1
1
1
1
1
1
1
1
1
1
1
1
1
1
1
1
1
1
1
1
1
1
1
1
1
1
1
1
1
1
1
1
1
1
1
1
1
1
1
1
1
1
1
1
1
1
1
1
1
1
1
1
1
1
1
1
1
1
1
1
1
1
1
1
1
1
1
1
1
1
1
1
1
1
1
1
1
1
1
1
1
1
1
1
1
1
1
1
1
1
1
1
1
1
1
1
1
1
1
1
1
1
1
1
1
1
1
1
1
1
1
1
1
1
1
1
1
1
1
1
1
1
1
1
1
1
1
1
1
1
1
1
1
1
1
1
1
1
1
1
1
1
1
1
1
1
1
1
1
1
1
1
1
1
1
1
1
1
1
1
1
1
1
1
1
1
1
1
1
1
1
1
1
1
1
1
1
1
1
1
1
1
1
1
1
1
1
1
1
1
1
1
1
1
1
1
1
1
1
1
1
1
1
1
1
1
1
1
1
1
1
1
1
1
1
1
1
1
1
1
1
1
1
1
1
1
1
1
1
1
1
1
1
1
1
1
1
1
1
1
1
1
1
1
1
1
1
1
1
1
1
1
1
1
1
1
1
1
1
1
1
1
1
1
1
1
1
1
1
1
1
1
1
1
1
1
1
1
1
1
1
1
1
1
1
1
1
1
1
1
1
1
1
1
1
1
1
1
1
1
1
1
1
1
1
1
1
1
1
1
1
1
1
1
1
1
1
1
1
1
1
1
1
1
1
1
1
1
1
1
1
1
1
1
1
1
1
1
1
1
1
1
1
1
1
1
1
1
1
1
1
1
1
1
1
1
1
1
1
1
1
1
1
1
1
1
1
1
1
1
1
1
1
1
1
1
1
1
1
1
1
1
1
1
1
1
1
1
1
1
1
1
1
1
1
1
1
1
1
1
1
1
1
1
1
1
1
1
1
1
1
1
1
1
1
1
1
1
1
1
1
1
1
1
1
1
1
1
1
1
1
1
1
1
1
1
1
1
1
1
1
1
1
1
1
1
1
1
1
1
1
1
1
1
1
1
1
1
1
1
1
1
1
1
1
1
1
1
1
1
1
1
1
1
1
1
1
1
1
1
1
1
1
1
1
1
1
1
1
1
1
1
1
1
1
1
1
1
1
1
1
1
1
1
1
1
1
1
1
1
1
1
1
1
1
1
1
1
1
1
1
1
1
1
1
1
1
1
1
1
1
1
1
1
1
1
1
1
1
1
1
1
1
1
1
1
1
1
1
1
1
1
1
1
1
1
1
1
1
1
1
1
1
1
1
1
1
1
1
1
1
1
1
1
1
1
1
1
1
1
1
1
1
1
1
1
1
1
1
1
1
1
1
1
1
1
1
1
1
1
1
1
1
1
1
1
1
1
1
1
1
1
1
1
1
1
1
1
1
1
1
1
1
1
1
1
1
1
1
1
1
1
1
1
1
1
1
1
1
1
1
1
1
1
1
1
1
1
1
1
1
1
1
1
1
1
1
1
1
1
1
1
1
1
1
1
1
1
1
1
1
1
1
1
1
1
1
1
1
1
1
1
1
1
1
1
1
1
1
1
1
1
1
1
1
1
1
1
1
1
1
1
1
1
1
1
1
1
1
1
1
1
1
1
1
1
1
1
1
1
1
1
1
1
1
1
1
1
1
1
1
1
1
1
1
1
1
1
1
1
1
1
1
1
1
1
1
1
1
1
1
1
1
1
1
1
1
1
1
1
1
1
1
1
1
1
1
1
1
1
1
1
1
1
1
1
1
1
1
1
1
1
1
1
1
1
1
1
1
1
1
1
1
1
1
1
1
1
1
1
1
1
1
1
1
1
1
1
1
1
1
1
1
1
1
1
1
1
1
1
1
1
1
1
1
1
1
1
1
1
1
1
1
1
1
1
1
1
1
1
1
1
1
1
1
1
1
1
1
1
1
1
1
1
1
1
1
1
1
1
1
1
1
1
1
1
1
1
1
1
1
1
1
1
1
1
1
1
1
1
1
1
1
1
1
1
1
1
1
1
1
1
1
1
1
1
1
1
1
1
1
1
1
1
1
1
1
1
1
1
1
1
1
1
1
1
1
1
1
1
1
1
1
1
1
1
1
1
1
1
1
1
1
1
1
1
1
1
1
1
1
1
1
1
1
1
1
1
1
1
1
1
1
1
1
1
1
1
1
1
1
1
1
1
1
1
1
1
1
1
1
1
1
1
1
1
1
1
1
1
1
1
1
1
1
1
1
1
1
1
1
1
1
1
1
1
1
1
1
1
1
1
1
1
1
1
1
1
1
1
1
1
1
1
1
1
1
1
1
1
1
1
1
1
1
1
1
1
1
1
1
1
1
1
1
1
1
1
1
1
1
1
1
1
1
1
1
1
1
1
1
1
1
1
1
1
1
1
1
1
1
1
1
1
1
1
1
1
1
1
1
1
1
1
1
1
1
1
1
1
1
1
1
1
1
1
1
1
1
1
1
1
1
1
1
1
1
1
1
1
1
1
1
1
1
1
1
1
1
1
1
1
1
1
1
1
1
1
1
1
1
1
1
1
1
1
1
1
1
1
1
1
1
1
1
1
1
1
1
1
1.07222
1.16933
1.25926
1.34643
1.44356
1.51565
1.58057
1.64406
1.66977
1.69671
1.7124
1.70737
1.68864
1.65238
1.61011
1.57576
1.55872
1.54011
1.5262
1.52703
1.5297
1.5344
1.53981
1.54424
1.54931
1.55425
1.55756
1.55918
1.55884
1.55893
1.56055
1.56306
1.56396
1.56365
1.56244
1.5605
1.55951
1.56002
1.5614
1.56296
1.56434
1.56558
1.56669
1.56741
1.56777
1.56772
1.56709
1.56665
1.5663
1.56556
1.56506
1.56503
1.56492
1.56466
1.56446
1.56465
1.56541
1.56649
1.56772
1.5688
1.56956
1.57013
1.57051
1.5706
1.57046
1.57001
1.56979
1.56979
1.56984
1.56979
1.56971
1.56959
1.56933
1.56886
1.56836
1.56811
1.56807
1.56818
1.56849
1.56928
0.999893
1.00108
1.0173
1.03881
1.07499
1.14859
1.20743
1.28
1.34495
1.40147
1.4542
1.48868
1.52039
1.53396
1.56761
1.59261
1.58938
1.58729
1.57934
1.57412
1.56842
1.56385
1.56005
1.55508
1.55289
1.5532
1.55545
1.55848
1.55961
1.56144
1.56444
1.56665
1.56693
1.56653
1.56583
1.56532
1.56528
1.5655
1.56602
1.56609
1.56583
1.56572
1.5661
1.5668
1.5672
1.56732
1.56761
1.56807
1.56856
1.5692
1.56954
1.56969
1.5696
1.56924
1.56867
1.5683
1.56845
1.56868
1.56879
1.56895
1.5692
1.56934
1.56947
1.56954
1.56958
1.56973
1.57003
1.57042
1.57084
1.57116
1.57122
1.5712
1.57103
1.57067
1.57023
1.57013
1.57017
1.57027
1.57053
1.57089
1
1
1
1
0.999908
1.00015
1.00191
1.01048
1.03892
1.08748
1.18439
1.29226
1.41552
1.53423
1.595
1.64517
1.64371
1.63789
1.63033
1.62048
1.60977
1.5914
1.57735
1.56722
1.56376
1.56392
1.56516
1.56705
1.56895
1.57089
1.57228
1.57288
1.57363
1.57475
1.57544
1.57581
1.57643
1.57701
1.57699
1.57637
1.57491
1.57341
1.57235
1.57183
1.57156
1.5713
1.57132
1.57189
1.57326
1.57516
1.57639
1.5766
1.5764
1.57592
1.57535
1.57477
1.57455
1.57444
1.5741
1.57355
1.57308
1.57269
1.57226
1.57191
1.57173
1.57171
1.57184
1.57228
1.57307
1.5737
1.57393
1.57399
1.57397
1.57377
1.57329
1.57306
1.57309
1.57323
1.5735
1.57359
1
1
1
1
1
1
1
0.999993
1
0.999927
1.00123
1.01091
1.05327
1.18556
1.32563
1.47369
1.54788
1.58854
1.61599
1.61172
1.61223
1.61933
1.61832
1.61141
1.60241
1.5968
1.59184
1.58788
1.58251
1.5786
1.57718
1.57737
1.57911
1.58262
1.58594
1.58819
1.58983
1.5903
1.59023
1.58945
1.58783
1.58594
1.5839
1.58243
1.58173
1.58107
1.58044
1.58021
1.58057
1.58164
1.58278
1.58354
1.58388
1.58387
1.58362
1.5833
1.58306
1.58273
1.58207
1.58125
1.5805
1.57974
1.57887
1.57811
1.57771
1.57754
1.5774
1.57739
1.57763
1.57786
1.57782
1.57771
1.57747
1.57711
1.57681
1.57681
1.57697
1.57731
1.57766
1.57763
1
1
1
1
1
1
1
1
1
1
0.999998
1
0.999939
1.00079
1.01111
1.06053
1.20269
1.33372
1.46225
1.53891
1.59741
1.64306
1.64256
1.6389
1.63293
1.62646
1.61638
1.60517
1.59787
1.59138
1.58702
1.58682
1.5877
1.59034
1.59327
1.59451
1.59476
1.59494
1.59559
1.59625
1.59671
1.59664
1.59611
1.59526
1.59425
1.59278
1.59093
1.58997
1.59008
1.59052
1.59048
1.59
1.58931
1.58874
1.58856
1.5886
1.58886
1.58937
1.58955
1.58934
1.58877
1.58817
1.58753
1.58675
1.58611
1.58574
1.58538
1.58511
1.58507
1.58497
1.58467
1.58418
1.58337
1.58243
1.58172
1.58135
1.58131
1.58149
1.58192
1.58186
1
1
1
1
1
1
1
1
1
1
1
1
1
0.999998
1
0.999956
1.00174
1.01374
1.06713
1.21053
1.3448
1.47194
1.5322
1.58218
1.60888
1.60982
1.61172
1.61751
1.61636
1.60924
1.60313
1.60042
1.59837
1.59743
1.59582
1.59318
1.59172
1.59193
1.59354
1.5963
1.59888
1.60065
1.60194
1.60226
1.602
1.6013
1.60016
1.59857
1.59766
1.59722
1.59662
1.59594
1.59472
1.59355
1.59286
1.59269
1.59275
1.59317
1.59386
1.59425
1.59437
1.59438
1.59427
1.59403
1.59367
1.59342
1.5932
1.59308
1.59295
1.59254
1.59199
1.59121
1.59009
1.58889
1.5879
1.58732
1.58701
1.58697
1.58713
1.58695
1
1
1
1
1
1
1
1
1
1
1
1
1
1
1
0.999999
1
0.999996
0.999995
1.00269
1.01822
1.08677
1.22799
1.35109
1.46839
1.5294
1.58934
1.61606
1.61486
1.61433
1.61241
1.60938
1.60434
1.60097
1.59709
1.59232
1.58976
1.58971
1.59076
1.59305
1.59535
1.59756
1.59995
1.60211
1.60321
1.60343
1.60323
1.60266
1.60242
1.60213
1.6012
1.59953
1.59832
1.59728
1.59633
1.5959
1.59582
1.59584
1.59609
1.59658
1.59702
1.59722
1.59718
1.59699
1.59683
1.59694
1.59722
1.59747
1.59742
1.59707
1.59652
1.59574
1.59473
1.59354
1.59255
1.59198
1.59163
1.59153
1.59175
1.59156
1
1
1
1
1
1
1
1
1
1
1
1
1
1
1
1
1
1
1
1
0.999985
1.00014
1.00467
1.02373
1.11044
1.24898
1.37546
1.47274
1.52586
1.57272
1.59085
1.5962
1.60216
1.60477
1.60366
1.59887
1.59481
1.59267
1.59139
1.59112
1.59163
1.59231
1.59339
1.5946
1.59572
1.59749
1.59937
1.60067
1.6013
1.60169
1.60199
1.60174
1.60139
1.60105
1.60031
1.59943
1.59861
1.59789
1.59758
1.59766
1.59799
1.59795
1.59769
1.59726
1.59709
1.59717
1.59756
1.59805
1.59828
1.59829
1.59812
1.59772
1.59718
1.59654
1.59598
1.59562
1.5955
1.5956
1.59596
1.59582
1
1
1
1
1
1
1
1
1
1
1
1
1
1
1
1
1
1
1
1
1
0.999999
1
0.999987
1.00051
1.00765
1.03652
1.14409
1.27863
1.40574
1.48475
1.53619
1.58437
1.59375
1.59455
1.59491
1.59521
1.59452
1.59333
1.59303
1.59201
1.5903
1.58846
1.58748
1.58766
1.58895
1.59085
1.59241
1.59374
1.59538
1.59739
1.59896
1.59978
1.60037
1.60068
1.60067
1.60041
1.59979
1.59908
1.59863
1.59811
1.59769
1.59716
1.59654
1.59628
1.59634
1.59678
1.59735
1.59784
1.59823
1.59835
1.5983
1.59824
1.5982
1.59808
1.59796
1.59791
1.59817
1.59862
1.59853
1
1
1
1
1
1
1
1
1
1
1
1
1
1
1
1
1
1
1
1
1
1
1
1
1
0.999997
1.00001
1.00165
1.01347
1.06305
1.19916
1.32194
1.43796
1.4947
1.53476
1.56512
1.58294
1.58776
1.59108
1.59466
1.59476
1.5934
1.59048
1.58834
1.58704
1.58559
1.58475
1.58544
1.58661
1.58788
1.58965
1.59138
1.59303
1.59478
1.59605
1.59674
1.59702
1.59696
1.59717
1.59793
1.59853
1.59849
1.59776
1.59656
1.59574
1.59552
1.59585
1.5968
1.59765
1.59797
1.59798
1.59786
1.59772
1.59778
1.598
1.59824
1.59861
1.59905
1.59946
1.59942
1
1
1
1
1
1
1
1
1
1
1
1
1
1
1
1
1
1
1
1
1
1
1
1
1
1
1
1
0.999994
1.00018
1.00518
1.02602
1.10121
1.24601
1.37293
1.46468
1.50958
1.54643
1.5692
1.58362
1.58744
1.5876
1.58725
1.58673
1.58709
1.58718
1.58661
1.5853
1.58475
1.58456
1.58467
1.5856
1.58684
1.58772
1.58841
1.5887
1.58919
1.59047
1.59222
1.59409
1.59545
1.59572
1.59546
1.59499
1.59511
1.59543
1.59578
1.59637
1.59691
1.59693
1.5968
1.5967
1.59667
1.59676
1.59709
1.59736
1.5977
1.5982
1.5987
1.59887
1
1
1
1
1
1
1
1
1
1
1
1
1
1
1
1
1
1
1
1
1
1
1
1
1
1
1
1
1
1
1
1.00001
1.00087
1.01229
1.05117
1.1726
1.31405
1.42973
1.49061
1.52765
1.54884
1.56429
1.57412
1.57954
1.58338
1.58477
1.58461
1.58433
1.58514
1.58618
1.58666
1.58648
1.58513
1.58351
1.58271
1.58233
1.58232
1.58315
1.5853
1.58788
1.58963
1.5904
1.5911
1.59145
1.59176
1.5924
1.59347
1.5946
1.59531
1.59553
1.59554
1.59549
1.59533
1.59508
1.59514
1.59548
1.59577
1.5962
1.59671
1.59729
1
1
1
1
1
1
1
1
1
1
1
1
1
1
1
1
1
1
1
1
1
1
1
1
1
1
1
1
1
1
1
1
1
1
1.00017
1.00478
1.03035
1.1029
1.24967
1.39098
1.48386
1.51782
1.5384
1.55054
1.56354
1.57188
1.57608
1.5792
1.58106
1.58305
1.58405
1.58462
1.58521
1.58532
1.58424
1.58204
1.58016
1.57982
1.58065
1.58287
1.58435
1.58474
1.58486
1.58526
1.58608
1.58759
1.58957
1.59094
1.59156
1.59191
1.59216
1.59258
1.59317
1.59363
1.59383
1.59389
1.59393
1.59404
1.59441
1.59545
1
1
1
1
1
1
1
1
1
1
1
1
1
1
1
1
1
1
1
1
1
1
1
1
1
1
1
1
1
1
1
1
1
1
1
0.999998
1.00005
1.00117
1.01756
1.07007
1.19955
1.34712
1.47273
1.5165
1.53547
1.55127
1.5538
1.56003
1.56536
1.57233
1.57643
1.57814
1.57991
1.58088
1.58114
1.58087
1.58087
1.58129
1.58231
1.58286
1.58254
1.58159
1.5807
1.58056
1.58111
1.58266
1.58451
1.58574
1.58637
1.58688
1.58756
1.58832
1.58926
1.59032
1.59118
1.59162
1.5918
1.59191
1.59204
1.59301
1
1
1
1
1
1
1
1
1
1
1
1
1
1
1
1
1
1
1
1
1
1
1
1
1
1
1
1
1
1
1
1
1
1
1
1
1
0.999998
1.00002
1.00048
1.00908
1.05277
1.15967
1.30555
1.44232
1.52931
1.547
1.55419
1.55772
1.55905
1.56248
1.56439
1.56596
1.56875
1.57262
1.57637
1.57796
1.57908
1.5808
1.58213
1.58211
1.58181
1.58103
1.58004
1.57995
1.58018
1.58084
1.58149
1.5818
1.58213
1.58262
1.58345
1.58467
1.58612
1.5873
1.588
1.58836
1.58863
1.58887
1.58991
1
1
1
1
1
1
1
1
1
1
1
1
1
1
1
1
1
1
1
1
1
1
1
1
1
1
1
1
1
1
1
1
1
1
1
1
1
1
1
0.999999
1.00001
1.00029
1.0043
1.04096
1.13358
1.29051
1.42765
1.52634
1.55993
1.55985
1.56294
1.56208
1.56172
1.5626
1.56432
1.56696
1.56956
1.57168
1.57417
1.57686
1.57855
1.57871
1.57821
1.57817
1.57888
1.58027
1.5809
1.58072
1.58002
1.5796
1.5796
1.57995
1.58087
1.58218
1.5833
1.58414
1.58467
1.58512
1.58551
1.58648
1
1
1
1
1
1
1
1
1
1
1
1
1
1
1
1
1
1
1
1
1
1
1
1
1
1
1
1
1
1
1
1
1
1
1
1
1
1
1
1
1
1
0.999998
1.00023
1.00289
1.03402
1.12917
1.28343
1.41666
1.51791
1.5591
1.56721
1.57099
1.5739
1.57058
1.56727
1.56697
1.56762
1.56873
1.56986
1.5707
1.57086
1.57135
1.573
1.57547
1.57748
1.5785
1.57859
1.57855
1.57853
1.57835
1.57821
1.57839
1.57919
1.5802
1.58113
1.58187
1.58262
1.58326
1.58389
1
1
1
1
1
1
1
1
1
1
1
1
1
1
1
1
1
1
1
1
1
1
1
1
1
1
1
1
1
1
1
1
1
1
1
1
1
1
1
1
1
1
1
1
0.999998
1.0002
1.00277
1.03061
1.13195
1.27581
1.41537
1.50665
1.55787
1.57555
1.57505
1.57572
1.57656
1.57595
1.57376
1.57104
1.56879
1.56743
1.5671
1.56762
1.56953
1.57239
1.57481
1.57633
1.57685
1.57696
1.57646
1.57609
1.57634
1.57698
1.57776
1.57871
1.57983
1.58087
1.58164
1.58227
1
1
1
1
1
1
1
1
1
1
1
1
1
1
1
1
1
1
1
1
1
1
1
1
1
1
1
1
1
1
1
1
1
1
1
1
1
1
1
1
1
1
1
1
1
1
0.999998
1.00018
1.00309
1.02721
1.14302
1.29984
1.42606
1.50797
1.55064
1.57026
1.57758
1.57916
1.57839
1.57697
1.57629
1.57422
1.57136
1.56922
1.56896
1.57067
1.57304
1.57379
1.57411
1.57416
1.57398
1.57417
1.57462
1.57519
1.57584
1.57668
1.57745
1.57841
1.57929
1.58028
1
1
1
1
1
1
1
1
1
1
1
1
1
1
1
1
1
1
1
1
1
1
1
1
1
1
1
1
1
1
1
1
1
1
1
1
1
1
1
1
1
1
1
1
1
1
1
1
0.999999
1.00018
1.00459
1.03609
1.16031
1.32847
1.45364
1.51097
1.54667
1.56833
1.57164
1.57442
1.57663
1.57695
1.57615
1.57378
1.5738
1.57469
1.57469
1.57419
1.57352
1.57294
1.57263
1.5727
1.57301
1.57337
1.57369
1.57399
1.57442
1.57505
1.57611
1.57776
1
1
1
1
1
1
1
1
1
1
1
1
1
1
1
1
1
1
1
1
1
1
1
1
1
1
1
1
1
1
1
1
1
1
1
1
1
1
1
1
1
1
1
1
1
1
1
1
1
1
1
1.00032
1.00723
1.04917
1.19615
1.37053
1.48629
1.53366
1.54653
1.55372
1.56335
1.5684
1.5711
1.57336
1.57531
1.57631
1.57607
1.57533
1.57427
1.57302
1.57271
1.57305
1.57387
1.57418
1.57407
1.57337
1.573
1.57323
1.57369
1.57492
1
1
1
1
1
1
1
1
1
1
1
1
1
1
1
1
1
1
1
1
1
1
1
1
1
1
1
1
1
1
1
1
1
1
1
1
1
1
1
1
1
1
1
1
1
1
1
1
1
1
1
1
1.00001
1.00063
1.01339
1.07773
1.23288
1.41888
1.53028
1.54773
1.55675
1.55827
1.56113
1.56527
1.57008
1.57328
1.57418
1.57374
1.57228
1.57074
1.5709
1.57184
1.57314
1.57449
1.57506
1.57527
1.57487
1.5736
1.57256
1.57316
1
1
1
1
1
1
1
1
1
1
1
1
1
1
1
1
1
1
1
1
1
1
1
1
1
1
1
1
1
1
1
1
1
1
1
1
1
1
1
1
1
1
1
1
1
1
1
1
1
1
1
1
1
0.999999
1.00006
1.00154
1.02397
1.11927
1.3142
1.46507
1.54867
1.56633
1.56688
1.57104
1.57249
1.57284
1.573
1.57193
1.5694
1.56709
1.56655
1.56694
1.56893
1.57246
1.57511
1.57581
1.57565
1.57459
1.57354
1.57306
1
1
1
1
1
1
1
1
1
1
1
1
1
1
1
1
1
1
1
1
1
1
1
1
1
1
1
1
1
1
1
1
1
1
1
1
1
1
1
1
1
1
1
1
1
1
1
1
1
1
1
1
1
1
1
1
1.0002
1.00409
1.06006
1.19749
1.37582
1.49462
1.55481
1.57818
1.58048
1.58046
1.58053
1.57938
1.57604
1.57111
1.56723
1.56652
1.56721
1.56958
1.57212
1.57372
1.57453
1.57461
1.5741
1.57333
1
1
1
1
1
1
1
1
1
1
1
1
1
1
1
1
1
1
1
1
1
1
1
1
1
1
1
1
1
1
1
1
1
1
1
1
1
1
1
1
1
1
1
1
1
1
1
1
1
1
1
1
1
1
1
1
1
1.00001
1.00122
1.0138
1.1064
1.2914
1.45011
1.51639
1.55457
1.57187
1.57697
1.58003
1.58066
1.57925
1.57501
1.57226
1.57162
1.57153
1.57258
1.57322
1.5728
1.57311
1.5734
1.57362
1
1
1
1
1
1
1
1
1
1
1
1
1
1
1
1
1
1
1
1
1
1
1
1
1
1
1
1
1
1
1
1
1
1
1
1
1
1
1
1
1
1
1
1
1
1
1
1
1
1
1
1
1
1
1
1
1
1
1
1.00009
1.00404
1.04075
1.20193
1.39197
1.51379
1.53542
1.54738
1.56268
1.5718
1.57503
1.57595
1.57601
1.57587
1.57593
1.57598
1.57479
1.5731
1.57244
1.57256
1.57362
1
1
1
1
1
1
1
1
1
1
1
1
1
1
1
1
1
1
1
1
1
1
1
1
1
1
1
1
1
1
1
1
1
1
1
1
1
1
1
1
1
1
1
1
1
1
1
1
1
1
1
1
1
1
1
1
1
1
1
1
1.00001
1.00076
1.01849
1.11175
1.29953
1.48745
1.5429
1.55862
1.5611
1.56378
1.56757
1.57056
1.57392
1.57661
1.57684
1.57568
1.57353
1.57168
1.57139
1.57304
1
1
1
1
1
1
1
1
1
1
1
1
1
1
1
1
1
1
1
1
1
1
1
1
1
1
1
1
1
1
1
1
1
1
1
1
1
1
1
1
1
1
1
1
1
1
1
1
1
1
1
1
1
1
1
1
1
1
1
1
1
1
1.00017
1.00542
1.04961
1.23145
1.43351
1.53982
1.56553
1.57004
1.57061
1.57052
1.57228
1.57526
1.57658
1.57589
1.57346
1.57039
1.56819
1.56919
1
1
1
1
1
1
1
1
1
1
1
1
1
1
1
1
1
1
1
1
1
1
1
1
1
1
1
1
1
1
1
1
1
1
1
1
1
1
1
1
1
1
1
1
1
1
1
1
1
1
1
1
1
1
1
1
1
1
1
1
1
1
1
1.00003
1.00104
1.0303
1.16488
1.36185
1.49701
1.56376
1.57985
1.5762
1.57619
1.57787
1.57973
1.58072
1.57922
1.57503
1.56937
1.56697
1
1
1
1
1
1
1
1
1
1
1
1
1
1
1
1
1
1
1
1
1
1
1
1
1
1
1
1
1
1
1
1
1
1
1
1
1
1
1
1
1
1
1
1
1
1
1
1
1
1
1
1
1
1
1
1
1
1
1
1
1
1
1
1
1
1.00066
1.01109
1.11035
1.3083
1.48891
1.53578
1.55207
1.56299
1.56986
1.57603
1.58082
1.58235
1.58186
1.57973
1.57201
1
1
1
1
1
1
1
1
1
1
1
1
1
1
1
1
1
1
1
1
1
1
1
1
1
1
1
1
1
1
1
1
1
1
1
1
1
1
1
1
1
1
1
1
1
1
1
1
1
1
1
1
1
1
1
1
1
1
1
1
1
1
1
1
1
1
1.00012
1.0063
1.06131
1.2529
1.45785
1.56274
1.56367
1.55573
1.5566
1.56162
1.57298
1.58292
1.58426
1.58157
1
1
1
1
1
1
1
1
1
1
1
1
1
1
1
1
1
1
1
1
1
1
1
1
1
1
1
1
1
1
1
1
1
1
1
1
1
1
1
1
1
1
1
1
1
1
1
1
1
1
1
1
1
1
1
1
1
1
1
1
1
1
1
1
1
1
1
1.00005
1.00223
1.04078
1.21277
1.43757
1.55336
1.56942
1.56594
1.5566
1.55867
1.56827
1.58115
1.58373
1
1
1
1
1
1
1
1
1
1
1
1
1
1
1
1
1
1
1
1
1
1
1
1
1
1
1
1
1
1
1
1
1
1
1
1
1
1
1
1
1
1
1
1
1
1
1
1
1
1
1
1
1
1
1
1
1
1
1
1
1
1
1
1
1
1
1
1
1.00002
1.00114
1.03014
1.17049
1.39632
1.54437
1.57158
1.5718
1.56101
1.55971
1.56492
1.57787
1
1
1
1
1
1
1
1
1
1
1
1
1
1
1
1
1
1
1
1
1
1
1
1
1
1
1
1
1
1
1
1
1
1
1
1
1
1
1
1
1
1
1
1
1
1
1
1
1
1
1
1
1
1
1
1
1
1
1
1
1
1
1
1
1
1
1
1
1
1.00001
1.00068
1.0171
1.14298
1.35798
1.52645
1.57417
1.57733
1.56772
1.56061
1.5661
1
1
1
1
1
1
1
1
1
1
1
1
1
1
1
1
1
1
1
1
1
1
1
1
1
1
1
1
1
1
1
1
1
1
1
1
1
1
1
1
1
1
1
1
1
1
1
1
1
1
1
1
1
1
1
1
1
1
1
1
1
1
1
1
1
1
1
1
1
1
1
1.00035
1.01162
1.11605
1.33413
1.51174
1.57668
1.57841
1.57173
1.56391
1
1
1
1
1
1
1
1
1
1
1
1
1
1
1
1
1
1
1
1
1
1
1
1
1
1
1
1
1
1
1
1
1
1
1
1
1
1
1
1
1
1
1
1
1
1
1
1
1
1
1
1
1
1
1
1
1
1
1
1
1
1
1
1
1
1
1
1
1
1
1
1
1.00021
1.00866
1.103
1.32003
1.50284
1.57662
1.57725
1.5708
1
1
1
1
1
1
1
1
1
1
1
1
1
1
1
1
1
1
1
1
1
1
1
1
1
1
1
1
1
1
1
1
1
1
1
1
1
1
1
1
1
1
1
1
1
1
1
1
1
1
1
1
1
1
1
1
1
1
1
1
1
1
1
1
1
1
1
1
1
1
1
1
1
1.00017
1.00747
1.09523
1.30707
1.51199
1.57269
1.57408
1
1
1
1
1
1
1
1
1
1
1
1
1
1
1
1
1
1
1
1
1
1
1
1
1
1
1
1
1
1
1
1
1
1
1
1
1
1
1
1
1
1
1
1
1
1
1
1
1
1
1
1
1
1
1
1
1
1
1
1
1
1
1
1
1
1
1
1
1
1
1
1
1
1
1.00015
1.00681
1.09028
1.31421
1.50111
1.56853
1
1
1
1
1
1
1
1
1
1
1
1
1
1
1
1
1
1
1
1
1
1
1
1
1
1
1
1
1
1
1
1
1
1
1
1
1
1
1
1
1
1
1
1
1
1
1
1
1
1
1
1
1
1
1
1
1
1
1
1
1
1
1
1
1
1
1
1
1
1
1
1
1
1
1
1.00014
1.00705
1.08774
1.30497
1.56217
1
1
1
1
1
1
1
1
1
1
1
1
1
1
1
1
1
1
1
1
1
1
1
1
1
1
1
1
1
1
1
1
1
1
1
1
1
1
1
1
1
1
1
1
1
1
1
1
1
1
1
1
1
1
1
1
1
1
1
1
1
1
1
1
1
1
1
1
1
1
1
1
1
1
1
1
1.00017
1.00639
1.10167
1.63081
)
;

boundaryField
{
    inlet
    {
        type            fixedValue;
        value           uniform 1;
    }
    outlet
    {
        type            zeroGradient;
    }
    bottom
    {
        type            symmetryPlane;
    }
    top
    {
        type            symmetryPlane;
    }
    obstacle
    {
        type            zeroGradient;
    }
    defaultFaces
    {
        type            empty;
    }
}


// ************************************************************************* //
