/*--------------------------------*- C++ -*----------------------------------*\
| =========                 |                                                 |
| \\      /  F ield         | OpenFOAM: The Open Source CFD Toolbox           |
|  \\    /   O peration     | Version:  2206                                  |
|   \\  /    A nd           | Website:  www.openfoam.com                      |
|    \\/     M anipulation  |                                                 |
\*---------------------------------------------------------------------------*/
FoamFile
{
    version     2.0;
    format      ascii;
    arch        "LSB;label=32;scalar=64";
    class       volScalarField;
    location    "0.06";
    object      rho;
}
// * * * * * * * * * * * * * * * * * * * * * * * * * * * * * * * * * * * * * //

dimensions      [1 -3 0 0 0 0 0];

internalField   nonuniform List<scalar> 
4800
(
1.40001
1.40001
1.40001
1.40001
1.40001
1.40001
1.40001
1.40001
1.40001
1.40001
1.40001
1.40001
1.40001
1.40001
1.40001
1.40001
1.40001
1.40001
1.40001
1.40001
1.40001
1.40001
1.40001
1.40001
1.40001
1.40001
1.40001
1.40001
1.40001
1.40001
1.40001
1.40001
1.40001
1.40001
1.40001
1.40001
1.40001
1.40001
1.40001
1.40001
1.40001
1.40001
1.40001
1.40001
1.40001
1.40001
1.40001
1.40001
1.40001
1.40001
1.40001
1.40001
1.40001
1.40001
1.40001
1.40001
1.40001
1.40001
1.40001
1.40001
1.40001
1.40001
1.40001
1.40001
1.40001
1.40001
1.40001
1.40001
1.40001
1.40001
1.40001
1.40001
1.40001
1.40001
1.40001
1.40001
1.40001
1.40001
1.40001
1.40001
1.40001
1.40001
1.40001
1.40001
1.40001
1.40001
1.40001
1.40001
1.40001
1.40001
1.40001
1.40001
1.40001
1.40001
1.40001
1.40001
1.40001
1.40001
1.40001
1.40001
1.40001
1.40001
1.40001
1.40001
1.40001
1.40001
1.40001
1.40001
1.40001
1.40001
1.40001
1.40001
1.40001
1.40001
1.40001
1.40001
1.40001
1.40001
1.40001
1.40001
1.40001
1.40001
1.40001
1.40001
1.40001
1.40001
1.40001
1.40001
1.40001
1.40001
1.40001
1.40001
1.40001
1.40001
1.40001
1.40001
1.40001
1.40001
1.40001
1.40001
1.40001
1.40001
1.40001
1.40001
1.40001
1.40001
1.40001
1.40001
1.40001
1.40001
1.40001
1.40001
1.40001
1.40001
1.40001
1.40001
1.40001
1.40001
1.40001
1.40001
1.40001
1.40001
1.40001
1.40001
1.40001
1.40001
1.40001
1.40001
1.40001
1.40001
1.40001
1.40001
1.40001
1.40001
1.40001
1.40001
1.40001
1.40001
1.40001
1.40001
1.40001
1.40001
1.40001
1.40001
1.40001
1.40001
1.40001
1.40001
1.40001
1.40001
1.40001
1.40001
1.40001
1.40001
1.40001
1.40001
1.40001
1.40001
1.40001
1.40001
1.40001
1.40001
1.40001
1.40001
1.40001
1.40001
1.40001
1.40001
1.40001
1.40001
1.40001
1.40001
1.40001
1.40001
1.40001
1.40001
1.40001
1.40001
1.40001
1.40001
1.40001
1.40001
1.40001
1.40001
1.40001
1.40001
1.40001
1.40001
1.40001
1.40001
1.40001
1.40001
1.40001
1.40001
1.40001
1.40001
1.40001
1.40001
1.40001
1.40001
1.40001
1.40001
1.40001
1.40001
1.40001
1.40001
1.40001
1.40001
1.40001
1.40001
1.40001
1.40001
1.40001
1.40001
1.40001
1.40001
1.40001
1.40001
1.40001
1.40001
1.40001
1.40001
1.40001
1.40001
1.40001
1.40001
1.40001
1.40001
1.40001
1.40001
1.40001
1.40001
1.40001
1.40001
1.40001
1.40001
1.40001
1.40001
1.40001
1.40001
1.40001
1.40001
1.40001
1.40001
1.40001
1.40001
1.40001
1.40001
1.40001
1.40001
1.40001
1.40001
1.40001
1.40001
1.40001
1.40001
1.40001
1.40001
1.40001
1.40001
1.40001
1.40001
1.40001
1.40001
1.40001
1.40001
1.40001
1.40001
1.40001
1.40001
1.40001
1.40001
1.40001
1.40001
1.40001
1.40001
1.40001
1.40001
1.40001
1.40001
1.40001
1.40001
1.40001
1.40001
1.40001
1.40001
1.40001
1.40001
1.40001
1.40001
1.40001
1.40001
1.40001
1.40001
1.40001
1.40001
1.40001
1.40001
1.40001
1.40001
1.40001
1.40001
1.40001
1.40001
1.40001
1.40001
1.40001
1.40001
1.40001
1.40001
1.40001
1.40001
1.40001
1.40001
1.40001
1.40001
1.40001
1.40001
1.40001
1.40001
1.40001
1.40001
1.40001
1.40001
1.40001
1.40001
1.40001
1.40001
1.40001
1.40001
1.40001
1.40001
1.40001
1.40001
1.40001
1.40001
1.40001
1.40001
1.40001
1.40001
1.40001
1.40001
1.40001
1.40001
1.40001
1.40001
1.40001
1.40001
1.40001
1.40001
1.40001
1.40001
1.40001
1.40001
1.40001
1.40001
1.40001
1.40001
1.40001
1.40001
1.40001
1.40001
1.40001
1.40001
1.40001
1.40001
1.40001
1.40001
1.40001
1.40001
1.40001
1.40001
1.40001
1.40001
1.40001
1.40001
1.40001
1.40001
1.40001
1.40001
1.40001
1.40001
1.40001
1.40001
1.40001
1.40001
1.40001
1.40001
1.40001
1.40001
1.40001
1.40001
1.40001
1.40001
1.40001
1.40001
1.40001
1.40001
1.40001
1.40001
1.40001
1.40001
1.40001
1.40001
1.40001
1.40001
1.40001
1.40001
1.40001
1.40001
1.40001
1.40001
1.40001
1.40001
1.40001
1.40001
1.40001
1.40001
1.40001
1.40001
1.40001
1.40001
1.40001
1.40001
1.40001
1.40001
1.40001
1.40001
1.40001
1.40001
1.40001
1.40001
1.40001
1.40001
1.40001
1.40001
1.40001
1.40001
1.40001
1.40001
1.40001
1.40001
1.40001
1.40001
1.40001
1.40001
1.40001
1.40001
1.40001
1.40001
1.40001
1.40001
1.40001
1.40001
1.40001
1.40001
1.40001
1.40001
1.40001
1.40001
1.40001
1.40001
1.40001
1.40001
1.40001
1.40001
1.40001
1.40001
1.40001
1.40001
1.40001
1.40001
1.40001
1.40001
1.40001
1.40001
1.40001
1.40001
1.40001
1.40001
1.40001
1.40001
1.40001
1.40001
1.40001
1.40001
1.40001
1.40001
1.40001
1.40001
1.40001
1.40001
1.40001
1.40001
1.40001
1.40001
1.40001
1.40001
1.40001
1.40001
1.40001
1.40001
1.40001
1.40001
1.40001
1.40001
1.40001
1.40001
1.40001
1.40001
1.40001
1.40001
1.40001
1.40001
1.40001
1.40001
1.40001
1.40001
1.40001
1.40001
1.40001
1.40001
1.40001
1.40001
1.40001
1.40001
1.40001
1.40001
1.40001
1.40001
1.40001
1.40001
1.40001
1.40001
1.40001
1.40001
1.40001
1.40001
1.40001
1.40001
1.40001
1.40001
1.40001
1.40001
1.40001
1.40001
1.40001
1.40001
1.40001
1.40001
1.40001
1.40001
1.40001
1.40001
1.40001
1.40001
1.40001
1.40001
1.40001
1.40001
1.40001
1.40001
1.40001
1.40001
1.40001
1.40001
1.40001
1.40001
1.40001
1.40001
1.40001
1.40001
1.40001
1.40001
1.40001
1.40001
1.40001
1.40001
1.40001
1.40001
1.40001
1.40001
1.40001
1.40001
1.40001
1.40001
1.40001
1.40001
1.40001
1.40001
1.40001
1.40001
1.40001
1.40001
1.40001
1.40001
1.40001
1.40001
1.40001
1.40001
1.40001
1.40001
1.40001
1.40001
1.40001
1.40001
1.40001
1.40001
1.40001
1.40001
1.40001
1.40001
1.40001
1.40001
1.40001
1.40001
1.40001
1.40001
1.40001
1.40001
1.40001
1.40001
1.40001
1.40001
1.40001
1.40001
1.40001
1.40001
1.40001
1.40001
1.40001
1.40001
1.40001
1.40001
1.40001
1.40001
1.40001
1.40001
1.40001
1.40001
1.40001
1.40001
1.40001
1.40001
1.40001
1.40001
1.40001
1.40001
1.40001
1.40001
1.40001
1.40001
1.40001
1.40001
1.40001
1.40001
1.40001
1.40001
1.40001
1.40001
1.40001
1.40001
1.40001
1.40001
1.40001
1.40001
1.40001
1.40001
1.40001
1.40001
1.40001
1.40001
1.40001
1.40001
1.40001
1.40001
1.40001
1.40001
1.40001
1.40001
1.40001
1.40001
1.40001
1.40001
1.40001
1.40001
1.40001
1.40001
1.40001
1.40001
1.40001
1.40001
1.40001
1.40001
1.40001
1.40001
1.40001
1.40001
1.40001
1.40001
1.40001
1.40001
1.40001
1.40001
1.40001
1.40001
1.40001
1.40001
1.40001
1.40001
1.40001
1.40001
1.40001
1.40001
1.40001
1.40001
1.40001
1.40001
1.40001
1.40001
1.40001
1.40001
1.40001
1.40001
1.40001
1.40001
1.40001
1.40001
1.40001
1.40001
1.40001
1.40001
1.40001
1.40001
1.40001
1.40001
1.40001
1.40001
1.40001
1.40001
1.40001
1.40001
1.40001
1.40001
1.40001
1.40001
1.40001
1.40001
1.40001
1.40001
1.40001
1.40001
1.40001
1.40001
1.40001
1.40001
1.40001
1.40001
1.40001
1.40001
1.40001
1.40001
1.40001
1.40001
1.40001
1.40001
1.40001
1.40001
1.40001
1.40001
1.40001
1.40001
1.40001
1.40001
1.40001
1.40001
1.40001
1.40001
1.40001
1.40001
1.40001
1.40001
1.40001
1.40001
1.40001
1.40001
1.40001
1.40001
1.40001
1.40001
1.40001
1.40001
1.40001
1.40001
1.40001
1.40001
1.40001
1.40001
1.40001
1.40001
1.40001
1.40001
1.40001
1.40001
1.40001
1.40001
1.40001
1.40001
1.40001
1.40001
1.40001
1.40001
1.40001
1.40001
1.40001
1.40001
1.40001
1.40001
1.40001
1.40001
1.40001
1.40001
1.40001
1.40001
1.40001
1.40001
1.40001
1.40001
1.40001
1.40001
1.40001
1.40001
1.40001
1.40001
1.40001
1.40001
1.40001
1.40001
1.40001
1.40001
1.40001
1.40001
1.40001
1.40001
1.40001
1.40001
1.40001
1.40001
1.40001
1.40001
1.40001
1.40001
1.40001
1.40001
1.40001
1.40001
1.40001
1.40001
1.40001
1.40001
1.40001
1.40001
1.40001
1.40001
1.40001
1.40001
1.40001
1.40001
1.40001
1.40001
1.40001
1.40001
1.40001
1.40001
1.40001
1.40001
1.40001
1.40001
1.40001
1.40001
1.40001
1.40001
1.40001
1.40001
1.40001
1.40001
1.40001
1.40001
1.40001
1.40001
1.40001
1.40001
1.40001
1.40001
1.40001
1.40001
1.40001
1.40001
1.40001
1.40001
1.40001
1.40001
1.40001
1.40001
1.40001
1.40001
1.40001
1.40001
1.40001
1.40001
1.40001
1.40001
1.40001
1.40001
1.40001
1.40001
1.40001
1.40001
1.40001
1.40001
1.40001
1.40001
1.40001
1.40001
1.40001
1.40001
1.40001
1.40001
1.40001
1.40001
1.40001
1.40001
1.40001
1.40001
1.40001
1.40001
1.40001
1.40001
1.40001
1.40001
1.40001
1.40001
1.40001
1.40001
1.40001
1.40001
1.40001
1.40001
1.40001
1.40001
1.40001
1.40001
1.40001
1.40001
1.40001
1.40001
1.40001
1.40001
1.40001
1.40001
1.40001
1.40001
1.40001
1.40001
1.40001
1.40001
1.40001
1.40001
1.40001
1.40001
1.40001
1.40001
1.40001
1.40001
1.40001
1.40001
1.40001
1.40001
1.40001
1.40001
1.40001
1.40001
1.40001
1.40001
1.40001
1.40001
1.40001
1.40001
1.40001
1.40001
1.40001
1.40001
1.40001
1.40001
1.40001
1.40001
1.40001
1.40001
1.40001
1.40001
1.40001
1.40001
1.40001
1.40001
1.40001
1.40001
1.40001
1.40001
1.40001
1.40001
1.40001
1.40001
1.40001
1.40001
1.40001
1.40001
1.40001
1.40001
1.40001
1.40001
1.40001
1.40001
1.40001
1.40001
1.40001
1.40001
1.40001
1.40001
1.40001
1.40001
1.40001
1.40001
1.40001
1.40001
1.40001
1.40001
1.40001
1.40001
1.40001
1.40001
1.40001
1.40001
1.40001
1.40001
1.40001
1.40001
1.40001
1.40001
1.40001
1.40001
1.40001
1.40001
1.40001
1.40001
1.40001
1.40001
1.40001
1.40001
1.40001
1.40001
1.40001
1.40001
1.40001
1.40001
1.40001
1.40001
1.40001
1.40001
1.40001
1.40001
1.40001
1.40001
1.40001
1.40001
1.40001
1.40001
1.40001
1.40001
1.40001
1.40001
1.40001
1.40001
1.40001
1.40001
1.40001
1.40001
1.40001
1.40001
1.40001
1.40001
1.40001
1.40001
1.40001
1.40001
1.40001
1.40001
1.40001
1.40001
1.40001
1.40001
1.40001
1.40001
1.40001
1.40001
1.40001
1.40001
1.40001
1.40001
1.40001
1.40001
1.40001
1.40001
1.40001
1.40001
1.40001
1.40001
1.40001
1.40001
1.40001
1.40001
1.40001
1.40001
1.40001
1.40001
1.40001
1.40001
1.40001
1.40001
1.40001
1.40001
1.40001
1.40001
1.40001
1.40001
1.40001
1.40001
1.40001
1.40001
1.40001
1.40001
1.40001
1.40001
1.40001
1.40001
1.40001
1.40001
1.40001
1.40001
1.40001
1.40001
1.40001
1.40001
1.40001
1.40001
1.40001
1.40001
1.40001
1.40001
1.40001
1.40001
1.40001
1.40001
1.40001
1.40001
1.40001
1.40001
1.40001
1.40001
1.40001
1.40001
1.40001
1.40001
1.40001
1.40001
1.40001
1.40001
1.40001
1.40001
1.40001
1.40001
1.40001
1.40001
1.40001
1.40001
1.40001
1.40001
1.40001
1.40001
1.40001
1.40001
1.40001
1.40001
1.40001
1.40001
1.40001
1.40001
1.40001
1.40001
1.40001
1.40001
1.40001
1.40001
1.40001
1.40001
1.40001
1.40001
1.40001
1.40001
1.40001
1.40001
1.40001
1.40001
1.40001
1.40001
1.40001
1.40001
1.40001
1.40001
1.40001
1.40001
1.40001
1.40001
1.40001
1.40001
1.40001
1.40001
1.40001
1.40001
1.40001
1.40001
1.40001
1.40001
1.40001
1.40001
1.40001
1.40001
1.40001
1.40001
1.40001
1.40001
1.40001
1.40001
1.40001
1.40001
1.40001
1.40001
1.40001
1.40001
1.40001
1.40001
1.40001
1.40001
1.40001
1.40001
1.40001
1.40001
1.40001
1.40001
1.40001
1.40001
1.40001
1.40001
1.40001
1.40001
1.40001
1.40001
1.40001
1.40001
1.40001
1.40001
1.40001
1.40001
1.40001
1.40001
1.40001
1.40001
1.40001
1.40001
1.40001
1.40001
1.40001
1.40001
1.40001
1.40001
1.40001
1.40001
1.40001
1.40001
1.40001
1.40001
1.40001
1.40001
1.40001
1.40001
1.40001
1.40001
1.40001
1.40001
1.40001
1.40001
1.40001
1.40001
1.40001
1.40001
1.40001
1.40001
1.40001
1.40001
1.40001
1.40001
1.40001
1.40001
1.40001
1.40001
1.40001
1.40001
1.40001
1.40001
1.40001
1.40001
1.40001
1.40001
1.40001
1.40001
1.40001
1.40001
1.40001
1.40001
1.40001
1.40001
1.40001
1.40001
1.40001
1.40001
1.40001
1.40001
1.40001
1.40001
1.40001
1.40001
1.40001
1.40001
1.40001
1.40001
1.40001
1.40001
1.40001
1.40001
1.40001
1.40001
1.40001
1.40001
1.40001
1.40001
1.40001
1.40001
1.40001
1.40001
1.40001
1.40001
1.40001
1.40001
1.40001
1.40001
1.40001
1.40001
1.40001
1.40001
1.40001
1.40001
1.40001
1.40001
1.40001
1.40001
1.40001
1.40001
1.40001
1.40001
1.40001
1.40001
1.40001
1.40001
1.40001
1.40001
1.40001
1.40001
1.40001
1.40001
1.40001
1.40001
1.40001
1.40001
1.40001
1.40001
1.40001
1.40001
1.40001
1.40001
1.40001
1.40001
1.40001
1.40001
1.40001
1.40001
1.40001
1.40001
1.40001
1.40001
1.40001
1.40001
1.40001
1.40001
1.40001
1.40001
1.40001
1.40001
1.40001
1.40001
1.40001
1.40001
1.40001
1.40001
1.40001
1.40001
1.40001
1.40001
1.40001
1.40001
1.40001
1.40001
1.40001
1.40001
1.40001
1.40001
1.40001
1.40001
1.40001
1.40001
1.40001
1.40001
1.40001
1.40001
1.40001
1.40001
1.40001
1.40001
1.40001
1.40001
1.40001
1.40001
1.40001
1.40001
1.40001
1.40001
1.40001
1.40001
1.40001
1.40001
1.40001
1.40001
1.40001
1.40001
1.40001
1.40001
1.40001
1.40001
1.40001
1.40001
1.40001
1.40001
1.40001
1.40001
1.40001
1.40001
1.40001
1.40001
1.40001
1.40001
1.40001
1.40001
1.40001
1.40001
1.40001
1.40001
1.40001
1.40001
1.40001
1.40001
1.40001
1.40001
1.40001
1.40001
1.40001
1.40001
1.40001
1.40001
1.40001
1.40001
1.40001
1.40001
1.40001
1.40001
1.40001
1.40001
1.40001
1.40001
1.40001
1.40001
1.40001
1.40001
1.40001
1.40001
1.40001
1.40001
1.40001
1.40001
1.40001
1.40001
1.40001
1.40001
1.40001
1.40001
1.40001
1.40001
1.40001
1.40001
1.40001
1.40001
1.40001
1.40001
1.40001
1.40001
1.40001
1.40001
1.40001
1.40001
1.40001
1.40001
1.40001
1.40001
1.40001
1.40001
1.40001
1.40001
1.40001
1.40001
1.40001
1.40001
1.40001
1.40001
1.40001
1.40001
1.40001
1.40001
1.40001
1.40001
1.40001
1.40001
1.40001
1.40001
1.66229
2.02799
2.41906
2.81357
3.13266
3.37255
3.66944
3.79812
3.84071
3.79175
3.66594
3.49352
3.30661
3.15459
3.07596
3.04727
3.02618
3.02565
3.0346
3.05275
3.07843
3.09982
3.10432
3.10399
3.10664
3.11149
3.11535
3.11535
3.11616
3.11516
3.10829
3.09194
3.06877
3.04541
3.02215
2.99761
2.98512
2.97847
2.96973
2.96078
2.95506
2.95035
2.94618
2.94352
2.94296
2.94354
2.94657
2.94946
2.95042
2.9504
2.95155
2.95438
2.95472
2.95305
2.95196
2.9517
2.95256
2.95568
2.9583
2.95944
2.96002
2.96152
2.96448
2.9685
2.97386
2.9817
2.99376
3.01196
3.03428
3.04864
3.05127
3.05128
3.05114
3.05081
3.05029
3.04998
3.04993
3.04991
3.04991
3.05007
1.40328
1.42868
1.47859
1.58134
1.76422
1.99629
2.27041
2.57006
2.86007
3.07011
3.12946
3.2693
3.29757
3.24492
3.19441
3.19534
3.17261
3.12408
3.09382
3.07206
3.06563
3.07148
3.0801
3.0878
3.09542
3.10065
3.10335
3.10288
3.10159
3.09863
3.09165
3.07679
3.05538
3.0329
3.01303
2.99264
2.97672
2.96892
2.96024
2.95275
2.94868
2.94481
2.94099
2.9382
2.9368
2.93653
2.93784
2.94032
2.9412
2.94165
2.94352
2.94652
2.94809
2.94664
2.94601
2.94707
2.94997
2.95225
2.95401
2.95605
2.9588
2.96221
2.9658
2.96949
2.97448
2.98243
2.99543
3.01503
3.03666
3.04793
3.04944
3.0494
3.04924
3.04898
3.04863
3.04848
3.04849
3.04854
3.04865
3.04889
1.4
1.40002
1.40013
1.40102
1.40568
1.42509
1.47286
1.61026
1.84334
2.25007
2.70055
3.05424
3.27821
3.3164
3.31934
3.30787
3.27823
3.20614
3.11455
3.05547
3.04396
3.05055
3.07232
3.08702
3.08542
3.08034
3.07603
3.07727
3.08052
3.08031
3.07552
3.06266
3.04172
3.01879
2.99947
2.98115
2.96519
2.95888
2.95322
2.94782
2.94442
2.94125
2.93779
2.93544
2.93349
2.93256
2.93328
2.93758
2.94217
2.94211
2.94087
2.9408
2.94336
2.94238
2.94092
2.9416
2.94372
2.94559
2.94748
2.94965
2.95248
2.9558
2.95966
2.9643
2.96978
2.97741
2.99031
3.01133
3.03362
3.0432
3.04427
3.04433
3.04433
3.04425
3.044
3.04389
3.04397
3.04406
3.04418
3.0444
1.4
1.40001
1.40001
1.4
1.40001
1.40002
1.40011
1.40142
1.40872
1.45294
1.63047
1.94401
2.44651
2.7995
3.07993
3.17439
3.17112
3.1783
3.18038
3.15023
3.11167
3.09931
3.09315
3.08001
3.06166
3.04708
3.04782
3.0532
3.06473
3.0673
3.06137
3.04557
3.0208
2.99424
2.97457
2.96139
2.95001
2.94495
2.94121
2.93707
2.93374
2.93116
2.92859
2.92707
2.92584
2.92421
2.92406
2.92752
2.93521
2.93632
2.93172
2.92956
2.93148
2.93415
2.93339
2.93337
2.93372
2.93406
2.93567
2.93832
2.94125
2.94461
2.94888
2.95431
2.96116
2.97053
2.98512
3.00709
3.02785
3.03509
3.03569
3.03585
3.03594
3.03585
3.03553
3.03549
3.03563
3.03575
3.03588
3.03625
1.40001
1.40001
1.40001
1.4
1.4
1.4
1.4
1.40001
1.4
1.40004
1.40191
1.41689
1.51727
1.78274
2.17512
2.62277
2.90921
3.14914
3.21233
3.20252
3.18118
3.15885
3.10832
3.06723
3.047
3.04523
3.04772
3.06196
3.06052
3.05517
3.04433
3.0264
3.00263
2.97879
2.95958
2.94833
2.93992
2.93298
2.92808
2.92443
2.92063
2.91813
2.91816
2.91875
2.9216
2.92418
2.92655
2.92865
2.9314
2.93388
2.93137
2.92752
2.92762
2.93053
2.92732
2.92424
2.92353
2.92351
2.92431
2.92751
2.93197
2.93634
2.94063
2.94561
2.95238
2.96289
2.97979
3.00264
3.02131
3.02645
3.02682
3.02699
3.02703
3.02673
3.02623
3.02623
3.02634
3.02648
3.02666
3.0272
1.40001
1.40001
1.40001
1.40001
1.40001
1.40001
1.40001
1.40001
1.4
1.4
1.40001
1.4
1.40046
1.40752
1.4473
1.62969
1.96503
2.41493
2.76965
2.96448
3.08853
3.08461
3.08926
3.10527
3.09889
3.08387
3.07737
3.07478
3.06221
3.04434
3.02682
3.01002
2.99174
2.97309
2.95866
2.94798
2.93813
2.92811
2.91994
2.91459
2.91093
2.90891
2.909
2.91486
2.91964
2.92244
2.92451
2.92555
2.92771
2.92948
2.92674
2.92455
2.92743
2.9296
2.92447
2.91996
2.91826
2.9179
2.9185
2.92165
2.92689
2.93212
2.937
2.94221
2.94899
2.95968
2.97714
2.9999
3.01552
3.01924
3.01958
3.01973
3.0198
3.01951
3.01922
3.01944
3.01978
3.02011
3.02043
3.0209
1.40001
1.40001
1.40001
1.40001
1.40001
1.40001
1.40001
1.40001
1.40001
1.40001
1.40001
1.4
1.4
1.4
1.40006
1.4024
1.42449
1.51686
1.81087
2.19844
2.66102
2.88852
3.06409
3.14215
3.13834
3.12817
3.10364
3.0597
3.03595
3.03003
3.02375
3.01127
2.9918
2.96356
2.9503
2.94237
2.93385
2.92564
2.91513
2.91009
2.90788
2.90755
2.91184
2.91537
2.91714
2.91866
2.91994
2.92146
2.92377
2.92522
2.92355
2.9237
2.9299
2.93003
2.92369
2.91888
2.91672
2.91628
2.91674
2.91999
2.92591
2.93217
2.93778
2.94319
2.95009
2.9608
2.97886
3.0014
3.01387
3.01608
3.01628
3.01631
3.01637
3.01618
3.01606
3.01631
3.01675
3.01722
3.01765
3.01805
1.40001
1.40001
1.40001
1.40001
1.40001
1.40001
1.40001
1.40001
1.40001
1.40001
1.40001
1.40001
1.40001
1.4
1.4
1.4
1.40002
1.40064
1.41159
1.46862
1.6549
2.04668
2.46696
2.83753
2.94553
3.04288
3.04677
3.05647
3.05698
3.05608
3.0459
3.02648
2.99501
2.95784
2.93632
2.92656
2.91774
2.91613
2.92121
2.92429
2.92183
2.9195
2.91772
2.91598
2.91503
2.91547
2.91546
2.91702
2.91924
2.92031
2.9231
2.93095
2.93461
2.92781
2.92092
2.91676
2.91486
2.91468
2.91607
2.91969
2.9252
2.93121
2.93735
2.94447
2.95249
2.96438
2.98403
3.0056
3.01501
3.016
3.01605
3.01602
3.01575
3.01549
3.01548
3.01568
3.016
3.01633
3.01655
3.01682
1.40001
1.40001
1.40001
1.40001
1.40001
1.40001
1.40001
1.40001
1.40001
1.40001
1.40001
1.40001
1.40001
1.40001
1.4
1.4
1.4
1.40001
1.4
1.40024
1.40372
1.44316
1.56321
1.8812
2.30522
2.73006
2.98895
3.06037
3.10358
3.09397
3.07146
3.03182
2.98609
2.94383
2.92112
2.91878
2.92231
2.92371
2.92242
2.92243
2.92079
2.91802
2.91711
2.91651
2.91557
2.91736
2.92191
2.92682
2.92994
2.93098
2.93323
2.93808
2.93761
2.93128
2.92606
2.92282
2.92026
2.9189
2.91877
2.92062
2.92528
2.931
2.93779
2.94552
2.9553
2.97028
2.99179
3.01113
3.01776
3.01816
3.0181
3.01789
3.01732
3.01648
3.0161
3.01607
3.01608
3.01624
3.01637
3.0165
1.40001
1.40001
1.40001
1.40001
1.40001
1.40001
1.40001
1.40001
1.40001
1.40001
1.40001
1.40001
1.40001
1.40001
1.40001
1.40001
1.40001
1.40001
1.4
1.4
1.4
1.4001
1.40165
1.41979
1.52418
1.76057
2.21195
2.60293
2.93654
3.03358
3.02232
3.02038
3.0011
2.96399
2.94435
2.94015
2.93655
2.92534
2.9175
2.91637
2.91607
2.9149
2.91706
2.91887
2.92206
2.92797
2.93402
2.93567
2.93484
2.93444
2.93607
2.94045
2.93756
2.93329
2.92948
2.92752
2.92578
2.92425
2.92355
2.92382
2.92711
2.93422
2.94186
2.95007
2.9621
2.9801
3.00216
3.01861
3.02278
3.02267
3.02203
3.02107
3.01984
3.01864
3.018
3.01768
3.01741
3.01741
3.01748
3.01763
1.40001
1.40001
1.40001
1.40001
1.40001
1.40001
1.40001
1.40001
1.40001
1.40001
1.40001
1.40001
1.40001
1.40001
1.40001
1.40001
1.40001
1.40001
1.40001
1.40001
1.4
1.4
1.4
1.40003
1.40106
1.4109
1.48384
1.71424
2.09713
2.51453
2.81136
3.00054
3.0098
2.98699
2.96522
2.95257
2.93877
2.91682
2.91029
2.91244
2.91847
2.92825
2.93669
2.93842
2.93488
2.93238
2.93282
2.93383
2.9329
2.93257
2.93593
2.93961
2.93697
2.93721
2.93731
2.93635
2.93588
2.93449
2.93307
2.93278
2.93566
2.94258
2.9513
2.96115
2.97379
2.99136
3.01157
3.0246
3.02694
3.02671
3.02602
3.02502
3.0238
3.02272
3.02208
3.02186
3.02164
3.02145
3.02144
3.0214
1.40001
1.40001
1.40001
1.40001
1.40001
1.40001
1.40001
1.40001
1.40001
1.40001
1.40001
1.40001
1.40001
1.40001
1.40001
1.40001
1.40001
1.40001
1.40001
1.40001
1.40001
1.40001
1.4
1.4
1.4
1.40001
1.40055
1.40879
1.45547
1.65403
1.9973
2.42821
2.7086
2.85775
2.91916
2.93896
2.92761
2.92137
2.92787
2.93955
2.94334
2.94485
2.94607
2.94103
2.9307
2.9262
2.92396
2.92497
2.92536
2.92759
2.93247
2.93655
2.9393
2.94141
2.94348
2.94184
2.94047
2.93882
2.93717
2.938
2.94181
2.94918
2.95862
2.96937
2.98284
3.00108
3.02071
3.03026
3.03122
3.0311
3.03089
3.03048
3.02983
3.02934
3.02895
3.02868
3.02838
3.02788
3.02725
3.02634
1.40001
1.40001
1.40001
1.40001
1.40001
1.40001
1.40001
1.40001
1.40001
1.40001
1.40001
1.40001
1.40001
1.40001
1.40001
1.40001
1.40001
1.40001
1.40001
1.40001
1.40001
1.40001
1.40001
1.40001
1.4
1.4
1.4
1.40001
1.40028
1.40576
1.44528
1.58849
1.91003
2.29668
2.55874
2.76133
2.88671
2.90868
2.93807
2.94003
2.93466
2.93638
2.93206
2.92344
2.91603
2.91489
2.91685
2.92079
2.92881
2.93743
2.94331
2.94567
2.94378
2.94042
2.94039
2.93956
2.93855
2.93789
2.93721
2.93858
2.94407
2.95247
2.96257
2.97549
2.99274
3.0142
3.03251
3.03824
3.03833
3.03792
3.03716
3.03601
3.03487
3.03411
3.03353
3.03325
3.03305
3.0327
3.03216
3.0312
1.40001
1.40001
1.40001
1.40001
1.40001
1.40001
1.40001
1.40001
1.40001
1.40001
1.40001
1.40001
1.40001
1.40001
1.40001
1.40001
1.40001
1.40001
1.40001
1.40001
1.40001
1.40001
1.40001
1.40001
1.40001
1.40001
1.40001
1.40001
1.40001
1.40001
1.4002
1.40351
1.431
1.52948
1.77336
2.06858
2.38566
2.603
2.79153
2.8454
2.84913
2.87482
2.88069
2.89966
2.9172
2.92906
2.94043
2.94592
2.94314
2.94268
2.94256
2.94282
2.93734
2.9345
2.93515
2.93384
2.93382
2.93378
2.9341
2.93711
2.94556
2.95583
2.96839
2.9848
3.00607
3.02844
3.04176
3.04367
3.04339
3.04256
3.04089
3.0389
3.03762
3.03692
3.03643
3.03624
3.03632
3.03644
3.03657
3.0363
1.40001
1.40001
1.40001
1.40001
1.40001
1.40001
1.40001
1.40001
1.40001
1.40001
1.40001
1.40001
1.40001
1.40001
1.40001
1.40001
1.40001
1.40001
1.40001
1.40001
1.40001
1.40001
1.40001
1.40001
1.40001
1.40001
1.40001
1.40001
1.40001
1.40001
1.40001
1.4
1.40011
1.40171
1.41529
1.46454
1.60978
1.85928
2.14115
2.43369
2.62769
2.78466
2.85143
2.89485
2.92591
2.92611
2.93476
2.93718
2.92674
2.91751
2.91858
2.92355
2.92386
2.92731
2.93339
2.93878
2.94451
2.94493
2.9444
2.94686
2.95303
2.96292
2.97697
2.99469
3.01538
3.03449
3.04286
3.04373
3.0437
3.04327
3.04201
3.04086
3.04084
3.0411
3.04117
3.04099
3.04085
3.04078
3.04076
3.04034
1.40001
1.40001
1.40001
1.40001
1.40001
1.40001
1.40001
1.40001
1.40001
1.40001
1.40001
1.40001
1.40001
1.40001
1.40001
1.40001
1.40001
1.40001
1.40001
1.40001
1.40001
1.40001
1.40001
1.40001
1.40001
1.40001
1.40001
1.40001
1.40001
1.40001
1.40001
1.4
1.4
1.4
1.40003
1.40047
1.40468
1.42697
1.49363
1.64577
1.88933
2.16232
2.42568
2.62638
2.76595
2.80065
2.85546
2.87105
2.86924
2.88897
2.90466
2.92008
2.93737
2.94689
2.95601
2.95364
2.95439
2.95424
2.95271
2.95463
2.95962
2.96732
2.98014
2.9997
3.02083
3.03579
3.04126
3.04232
3.04294
3.0433
3.04371
3.04392
3.04418
3.04468
3.0452
3.04521
3.04464
3.04369
3.04327
3.04259
1.40001
1.40001
1.40001
1.40001
1.40001
1.40001
1.40001
1.40001
1.40001
1.40001
1.40001
1.40001
1.40001
1.40001
1.40001
1.40001
1.40001
1.40001
1.40001
1.40001
1.40001
1.40001
1.40001
1.40001
1.40001
1.40001
1.40001
1.40001
1.40001
1.40001
1.40001
1.40001
1.40001
1.4
1.4
1.40001
1.40001
1.40009
1.40098
1.40682
1.43349
1.50267
1.66512
1.8884
2.17673
2.42634
2.62163
2.76157
2.84064
2.90498
2.91621
2.92959
2.94225
2.93969
2.94722
2.94219
2.94039
2.94217
2.94541
2.95055
2.96038
2.9724
2.98858
3.00936
3.02894
3.04134
3.04624
3.04761
3.0474
3.04672
3.04612
3.04555
3.04456
3.0443
3.04474
3.04487
3.04461
3.04434
3.04441
3.04458
1.40001
1.40001
1.40001
1.40001
1.40001
1.40001
1.40001
1.40001
1.40001
1.40001
1.40001
1.40001
1.40001
1.40001
1.40001
1.40001
1.40001
1.40001
1.40001
1.40001
1.40001
1.40001
1.40001
1.40001
1.40001
1.40001
1.40001
1.40001
1.40001
1.40001
1.40001
1.40001
1.40001
1.40001
1.40001
1.40001
1.40001
1.40001
1.4
1.40001
1.40015
1.40127
1.40816
1.43491
1.508
1.67101
1.88916
2.16685
2.41247
2.62326
2.73886
2.8089
2.86919
2.86636
2.88697
2.89862
2.91269
2.93108
2.94775
2.96075
2.97742
2.99348
3.01325
3.03406
3.04546
3.05111
3.05166
3.05116
3.04824
3.04509
3.04366
3.04312
3.04212
3.04165
3.04233
3.04342
3.04422
3.04479
3.04533
3.04638
1.40001
1.40001
1.40001
1.40001
1.40001
1.40001
1.40001
1.40001
1.40001
1.40001
1.40001
1.40001
1.40001
1.40001
1.40001
1.40001
1.40001
1.40001
1.40001
1.40001
1.40001
1.40001
1.40001
1.40001
1.40001
1.40001
1.40001
1.40001
1.40001
1.40001
1.40001
1.40001
1.40001
1.40001
1.40001
1.40001
1.40001
1.40001
1.40001
1.40001
1.40001
1.4
1.40001
1.40017
1.40143
1.4089
1.43544
1.5087
1.66604
1.87857
2.16234
2.39085
2.61096
2.73889
2.83707
2.89755
2.92231
2.94688
2.96001
2.97157
2.98771
2.99819
3.01065
3.0321
3.03941
3.0378
3.03868
3.04057
3.0391
3.03721
3.03824
3.04031
3.04157
3.0426
3.04386
3.04547
3.04692
3.04717
3.04692
3.04686
1.40001
1.40001
1.40001
1.40001
1.40001
1.40001
1.40001
1.40001
1.40001
1.40001
1.40001
1.40001
1.40001
1.40001
1.40001
1.40001
1.40001
1.40001
1.40001
1.40001
1.40001
1.40001
1.40001
1.40001
1.40001
1.40001
1.40001
1.40001
1.40001
1.40001
1.40001
1.40001
1.40001
1.40001
1.40001
1.40001
1.40001
1.40001
1.40001
1.40001
1.40001
1.40001
1.40001
1.40001
1.40001
1.40002
1.40018
1.40151
1.40871
1.43398
1.50581
1.65224
1.85811
2.13306
2.36437
2.59089
2.71892
2.82716
2.87218
2.91177
2.94128
2.9585
2.96698
2.99848
3.01899
3.02301
3.02988
3.03607
3.04056
3.04404
3.04669
3.04826
3.0491
3.04884
3.04783
3.04651
3.04614
3.04613
3.04531
3.04541
1.40001
1.40001
1.40001
1.40001
1.40001
1.40001
1.40001
1.40001
1.40001
1.40001
1.40001
1.40001
1.40001
1.40001
1.40001
1.40001
1.40001
1.40001
1.40001
1.40001
1.40001
1.40001
1.40001
1.40001
1.40001
1.40001
1.40001
1.40001
1.40001
1.40001
1.40001
1.40001
1.40001
1.40001
1.40001
1.40001
1.40001
1.40001
1.40001
1.40001
1.40001
1.40001
1.40001
1.40001
1.40001
1.40001
1.40001
1.40001
1.40002
1.40017
1.40144
1.40797
1.43117
1.4979
1.62823
1.82974
2.0827
2.32412
2.54159
2.703
2.80531
2.91386
2.95602
2.99531
3.02802
3.03598
3.0474
3.05034
3.0522
3.05208
3.04657
3.04394
3.04351
3.04289
3.04125
3.04022
3.04046
3.04133
3.04263
3.04429
1.40001
1.40001
1.40001
1.40001
1.40001
1.40001
1.40001
1.40001
1.40001
1.40001
1.40001
1.40001
1.40001
1.40001
1.40001
1.40001
1.40001
1.40001
1.40001
1.40001
1.40001
1.40001
1.40001
1.40001
1.40001
1.40001
1.40001
1.40001
1.40001
1.40001
1.40001
1.40001
1.40001
1.40001
1.40001
1.40001
1.40001
1.40001
1.40001
1.40001
1.40001
1.40001
1.40001
1.40001
1.40001
1.40001
1.40001
1.40001
1.40001
1.40001
1.40001
1.40002
1.40015
1.40126
1.40661
1.42615
1.48035
1.58989
1.76634
1.98606
2.22535
2.43346
2.63839
2.75556
2.87076
2.92801
2.97427
2.98986
2.99778
3.01714
3.01113
3.01682
3.02114
3.02815
3.03448
3.03847
3.04245
3.04617
3.04761
3.0478
1.40001
1.40001
1.40001
1.40001
1.40001
1.40001
1.40001
1.40001
1.40001
1.40001
1.40001
1.40001
1.40001
1.40001
1.40001
1.40001
1.40001
1.40001
1.40001
1.40001
1.40001
1.40001
1.40001
1.40001
1.40001
1.40001
1.40001
1.40001
1.40001
1.40001
1.40001
1.40001
1.40001
1.40001
1.40001
1.40001
1.40001
1.40001
1.40001
1.40001
1.40001
1.40001
1.40001
1.40001
1.40001
1.40001
1.40001
1.40001
1.40001
1.40001
1.40001
1.40001
1.40001
1.40001
1.40001
1.40011
1.40085
1.40442
1.41749
1.45275
1.5277
1.65148
1.82637
2.0354
2.25381
2.47637
2.64256
2.80401
2.87888
2.95852
2.99703
3.02062
3.0308
3.04003
3.04635
3.0503
3.04984
3.047
3.04575
3.04331
1.40001
1.40001
1.40001
1.40001
1.40001
1.40001
1.40001
1.40001
1.40001
1.40001
1.40001
1.40001
1.40001
1.40001
1.40001
1.40001
1.40001
1.40001
1.40001
1.40001
1.40001
1.40001
1.40001
1.40001
1.40001
1.40001
1.40001
1.40001
1.40001
1.40001
1.40001
1.40001
1.40001
1.40001
1.40001
1.40001
1.40001
1.40001
1.40001
1.40001
1.40001
1.40001
1.40001
1.40001
1.40001
1.40001
1.40001
1.40001
1.40001
1.40001
1.40001
1.40001
1.40001
1.40001
1.40001
1.40001
1.40001
1.40001
1.40005
1.40037
1.4019
1.40728
1.42286
1.4595
1.53366
1.664
1.84951
2.0777
2.33662
2.54351
2.73637
2.84941
2.9475
2.97794
2.99828
3.01958
3.02102
3.02319
3.02717
3.03176
1.40001
1.40001
1.40001
1.40001
1.40001
1.40001
1.40001
1.40001
1.40001
1.40001
1.40001
1.40001
1.40001
1.40001
1.40001
1.40001
1.40001
1.40001
1.40001
1.40001
1.40001
1.40001
1.40001
1.40001
1.40001
1.40001
1.40001
1.40001
1.40001
1.40001
1.40001
1.40001
1.40001
1.40001
1.40001
1.40001
1.40001
1.40001
1.40001
1.40001
1.40001
1.40001
1.40001
1.40001
1.40001
1.40001
1.40001
1.40001
1.40001
1.40001
1.40001
1.40001
1.40001
1.40001
1.40001
1.40001
1.40001
1.40001
1.40001
1.40001
1.40001
1.40001
1.40008
1.40043
1.402
1.408
1.4263
1.47364
1.57675
1.74316
1.97657
2.24478
2.49507
2.70597
2.84176
2.93846
2.98656
3.02164
3.03776
3.03968
1.40001
1.40001
1.40001
1.40001
1.40001
1.40001
1.40001
1.40001
1.40001
1.40001
1.40001
1.40001
1.40001
1.40001
1.40001
1.40001
1.40001
1.40001
1.40001
1.40001
1.40001
1.40001
1.40001
1.40001
1.40001
1.40001
1.40001
1.40001
1.40001
1.40001
1.40001
1.40001
1.40001
1.40001
1.40001
1.40001
1.40001
1.40001
1.40001
1.40001
1.40001
1.40001
1.40001
1.40001
1.40001
1.40001
1.40001
1.40001
1.40001
1.40001
1.40001
1.40001
1.40001
1.40001
1.40001
1.40001
1.40001
1.40001
1.40001
1.40001
1.40001
1.40001
1.40001
1.40001
1.40001
1.40002
1.4001
1.40068
1.40367
1.41489
1.4502
1.53535
1.69573
1.93451
2.21817
2.48788
2.71487