/*--------------------------------*- C++ -*----------------------------------*\
| =========                 |                                                 |
| \\      /  F ield         | OpenFOAM: The Open Source CFD Toolbox           |
|  \\    /   O peration     | Version:  2206                                  |
|   \\  /    A nd           | Website:  www.openfoam.com                      |
|    \\/     M anipulation  |                                                 |
\*---------------------------------------------------------------------------*/
FoamFile
{
    version     2.0;
    format      ascii;
    arch        "LSB;label=32;scalar=64";
    class       volVectorField;
    location    "0.16";
    object      U;
}
// * * * * * * * * * * * * * * * * * * * * * * * * * * * * * * * * * * * * * //

dimensions      [0 1 -1 0 0 0 0];

internalField   nonuniform List<vector> 
75
(
(3.9697 -5.13672e-15 0)
(3.9697 -5.1288e-15 0)
(3.9697 -1.62528e-17 0)
(3.9697 -2.90467e-16 0)
(3.9697 -9.07657e-16 0)
(3.9697 -4.2299e-16 0)
(3.9697 -6.83285e-15 0)
(3.9697 -6.53279e-15 0)
(3.9697 -6.21399e-15 0)
(3.9697 -5.50069e-15 0)
(3.9697 -5.12297e-15 0)
(3.9697 -5.07254e-15 0)
(3.9697 -9.42496e-15 0)
(3.9697 -8.61857e-15 0)
(3.9697 -8.64264e-16 0)
(3.9697 -4.60455e-15 0)
(3.9697 -7.08456e-16 0)
(3.9697 3.76398e-15 0)
(3.9697 7.86928e-15 0)
(3.9697 1.47532e-14 0)
(3.9697 4.60996e-15 0)
(3.9697 4.2724e-15 0)
(3.9697 7.6509e-15 0)
(3.9697 1.48167e-14 0)
(3.9697 1.54743e-14 0)
(3.92633 -0.00434872 0)
(3.85695 0.0949543 0)
(3.80516 0.108797 0)
(3.71327 0.286605 0)
(3.6757 0.337171 0)
(3.57625 0.510283 0)
(3.52877 0.601268 0)
(3.48866 0.754244 0)
(3.40614 0.885235 0)
(3.39876 0.950269 0)
(3.96887 0.000663432 0)
(3.95743 0.0214093 0)
(3.93862 0.0621552 0)
(3.87158 0.197036 0)
(3.81514 0.356639 0)
(3.66502 0.658291 0)
(3.59373 0.888476 0)
(3.39799 1.22834 0)
(3.29533 1.18065 0)
(3.34364 1.07287 0)
(3.96971 -1.50759e-05 0)
(3.96964 0.000111199 0)
(3.96972 -5.59487e-05 0)
(3.96884 0.00155137 0)
(3.96524 0.0107243 0)
(3.94772 0.0567559 0)
(3.90862 0.179173 0)
(3.82583 0.491142 0)
(3.6807 0.830309 0)
(3.48543 0.978909 0)
(3.9697 -2.50751e-06 0)
(3.9697 -2.68969e-06 0)
(3.9697 -1.1123e-05 0)
(3.96971 -4.06625e-05 0)
(3.96967 7.6288e-05 0)
(3.96978 -0.000266729 0)
(3.96722 0.00766413 0)
(3.95094 0.0780849 0)
(3.84685 0.509974 0)
(3.57533 0.889776 0)
(3.9697 -1.50206e-08 0)
(3.9697 -5.80837e-07 0)
(3.9697 -4.47926e-07 0)
(3.9697 -7.74861e-06 0)
(3.96971 -1.36757e-05 0)
(3.96971 -8.78749e-06 0)
(3.96971 -4.50298e-05 0)
(3.96847 0.00138164 0)
(3.92418 0.0693537 0)
(3.57698 0.369946 0)
)
;

boundaryField
{
    inlet
    {
        type            fixedValue;
        value           uniform (3.9697 0 0);
    }
    outlet
    {
        type            zeroGradient;
    }
    bottom
    {
        type            symmetryPlane;
    }
    top
    {
        type            symmetryPlane;
    }
    obstacle
    {
        type            slip;
    }
    defaultFaces
    {
        type            empty;
    }
}


// ************************************************************************* //
