/*--------------------------------*- C++ -*----------------------------------*\
| =========                 |                                                 |
| \\      /  F ield         | OpenFOAM: The Open Source CFD Toolbox           |
|  \\    /   O peration     | Version:  2206                                  |
|   \\  /    A nd           | Website:  www.openfoam.com                      |
|    \\/     M anipulation  |                                                 |
\*---------------------------------------------------------------------------*/
FoamFile
{
    version     2.0;
    format      ascii;
    arch        "LSB;label=32;scalar=64";
    class       volScalarField;
    location    "0.1";
    object      p;
}
// * * * * * * * * * * * * * * * * * * * * * * * * * * * * * * * * * * * * * //

dimensions      [1 -1 -2 0 0 0 0];

internalField   nonuniform List<scalar> 
75
(
1
1
1
1
1
1
1
1
1
1
1
1
1
1
1
1
1
1
1
1
1
1
1
1
1
1.27299
1.73347
2.35545
3.09844
3.99288
5.02668
6.05775
7.11442
8.1068
7.93714
0.998235
1.00372
1.01214
1.08838
1.23876
1.53599
2.09117
2.78294
3.8572
5.04145
0.999921
0.999973
0.999894
1.00026
0.999225
1.00095
1.02095
1.15613
1.57339
3.66221
1
0.999999
0.999994
0.999995
0.999668
0.999647
0.999805
0.998973
1.01133
1.83552
1
1
1
0.999999
0.999994
0.999935
0.999923
0.999818
0.999864
1.1167
)
;

boundaryField
{
    inlet
    {
        type            fixedValue;
        value           uniform 1;
    }
    outlet
    {
        type            zeroGradient;
    }
    bottom
    {
        type            symmetryPlane;
    }
    top
    {
        type            symmetryPlane;
    }
    obstacle
    {
        type            zeroGradient;
    }
    defaultFaces
    {
        type            empty;
    }
}


// ************************************************************************* //
