/*--------------------------------*- C++ -*----------------------------------*\
| =========                 |                                                 |
| \\      /  F ield         | OpenFOAM: The Open Source CFD Toolbox           |
|  \\    /   O peration     | Version:  2206                                  |
|   \\  /    A nd           | Website:  www.openfoam.com                      |
|    \\/     M anipulation  |                                                 |
\*---------------------------------------------------------------------------*/
FoamFile
{
    version     2.0;
    format      ascii;
    arch        "LSB;label=32;scalar=64";
    class       volScalarField;
    location    "0.12";
    object      p;
}
// * * * * * * * * * * * * * * * * * * * * * * * * * * * * * * * * * * * * * //

dimensions      [1 -1 -2 0 0 0 0];

internalField   nonuniform List<scalar> 
4800
(
1
1
1
1
1
1
1
1
1
1
1
1
1
1
1
1
1
1
1
1
1
1
1
1
1
1
1
1
1
1
1
1
1
1
1
1
1
1
1
1
1
1
1
1
1
1
1
1
1
1
1
1
1
1
1
1
1
1
1
1
1
1
1
1
1
1
1
1
1
1
1
1
1
1
1
1
1
1
1
1
1
1
1
1
1
1
1
1
1
1
1
1
1
1
1
1
1
1
1
1
1
1
1
1
1
1
1
1
1
1
1
1
1
1
1
1
1
1
1
1
1
1
1
1
1
1
1
1
1
1
1
1
1
1
1
1
1
1
1
1
1
1
1
1
1
1
1
1
1
1
1
1
1
1
1
1
1
1
1
1
1
1
1
1
1
1
1
1
1
1
1
1
1
1
1
1
1
1
1
1
1
1
1
1
1
1
1
1
1
1
1
1
1
1
1
1
1
1
1
1
1
1
1
1
1
1
1
1
1
1
1
1
1
1
1
1
1
1
1
1
1
1
1
1
1
1
1
1
1
1
1
1
1
1
1
1
1
1
1
1
1
1
1
1
1
1
1
1
1
1
1
1
1
1
1
1
1
1
1
1
1
1
1
1
1
1
1
1
1
1
1
1
1
1
1
1
1
1
1
1
1
1
1
1
1
1
1
1
1
1
1
1
1
1
1
1
1
1
1
1
1
1
1
1
1
1
1
1
1
1
1
1
1
1
1
1
1
1
1
1
1
1
1
1
1
1
1
1
1
1
1
1
1
1
1
1
1
1
1
1
1
1
1
1
1
1
1
1
1
1
1
1
1
1
1
1
1
1
1
1
1
1
1
1
1
1
1
1
1
1
1
1
1
1
1
1
1
1
1
1
1
1
1
1
1
1
1
1
1
1
1
1
1
1
1
1
1
1
1
1
1
1
1
1
1
1
1
1
1
1
1
1
1
1
1
1
1
1
1
1
1
1
1
1
1
1
1
1
1
1
1
1
1
1
1
1
1
1
1
1
1
1
1
1
1
1
1
1
1
1
1
1
1
1
1
1
1
1
1
1
1
1
1
1
1
1
1
1
1
1
1
1
1
1
1
1
1
1
1
1
1
1
1
1
1
1
1
1
1
1
1
1
1
1
1
1
1
1
1
1
1
1
1
1
1
1
1
1
1
1
1
1
1
1
1
1
1
1
1
1
1
1
1
1
1
1
1
1
1
1
1
1
1
1
1
1
1
1
1
1
1
1
1
1
1
1
1
1
1
1
1
1
1
1
1
1
1
1
1
1
1
1
1
1
1
1
1
1
1
1
1
1
1
1
1
1
1
1
1
1
1
1
1
1
1
1
1
1
1
1
1
1
1
1
1
1
1
1
1
1
1
1
1
1
1
1
1
1
1
1
1
1
1
1
1
1
1
1
1
1
1
1
1
1
1
1
1
1
1
1
1
1
1
1
1
1
1
1
1
1
1
1
1
1
1
1
1
1
1
1
1
1
1
1
1
1
1
1
1
1
1
1
1
1
1
1
1
1
1
1
1
1
1
1
1
1
1
1
1
1
1
1
1
1
1
1
1
1
1
1
1
1
1
1
1
1
1
1
1
1
1
1
1
1
1
1
1
1
1
1
1
1
1
1
1
1
1
1
1
1
1
1
1
1
1
1
1
1
1
1
1
1
1
1
1
1
1
1
1
1
1
1
1
1
1
1
1
1
1
1
1
1
1
1
1
1
1
1
1
1
1
1
1
1
1
1
1
1
1
1
1
1
1
1
1
1
1
1
1
1
1
1
1
1
1
1
1
1
1
1
1
1
1
1
1
1
1
1
1
1
1
1
1
1
1
1
1
1
1
1
1
1
1
1
1
1
1
1
1
1
1
1
1
1
1
1
1
1
1
1
1
1
1
1
1
1
1
1
1
1
1
1
1
1
1
1
1
1
1
1
1
1
1
1
1
1
1
1
1
1
1
1
1
1
1
1
1
1
1
1
1
1
1
1
1
1
1
1
1
1
1
1
1
1
1
1
1
1
1
1
1
1
1
1
1
1
1
1
1
1
1
1
1
1
1
1
1
1
1
1
1
1
1
1
1
1
1
1
1
1
1
1
1
1
1
1
1
1
1
1
1
1
1
1
1
1
1
1
1
1
1
1
1
1
1
1
1
1
1
1
1
1
1
1
1
1
1
1
1
1
1
1
1
1
1
1
1
1
1
1
1
1
1
1
1
1
1
1
1
1
1
1
1
1
1
1
1
1
1
1
1
1
1
1
1
1
1
1
1
1
1
1
1
1
1
1
1
1
1
1
1
1
1
1
1
1
1
1
1
1
1
1
1
1
1
1
1
1
1
1
1
1
1
1
1
1
1
1
1
1
1
1
1
1
1
1
1
1
1
1
1
1
1
1
1
1
1
1
1
1
1
1
1
1
1
1
1
1
1
1
1
1
1
1
1
1
1
1
1
1
1
1
1
1
1
1
1
1
1
1
1
1
1
1
1
1
1
1
1
1
1
1
1
1
1
1
1
1
1
1
1
1
1
1
1
1
1
1
1
1
1
1
1
1
1
1
1
1
1
1
1
1
1
1
1
1
1
1
1
1
1
1
1
1
1
1
1
1
1
1
1
1
1
1
1
1
1
1
1
1
1
1
1
1
1
1
1
1
1
1
1
1
1
1
1
1
1
1
1
1
1
1
1
1
1
1
1
1
1
1
1
1
1
1
1
1
1
1
1
1
1
1
1
1
1
1
1
1
1
1
1
1
1
1
1
1
1
1
1
1
1
1
1
1
1
1
1
1
1
1
1
1
1
1
1
1
1
1
1
1
1
1
1
1
1
1
1
1
1
1
1
1
1
1
1
1
1
1
1
1
1
1
1
1
1
1
1
1
1
1
1
1
1
1
1
1
1
1
1
1
1
1
1
1
1
1
1
1
1
1
1
1
1
1
1
1
1
1
1
1
1
1
1
1
1
1
1
1
1
1
1
1
1
1
1
1
1
1
1
1
1
1
1
1
1
1
1
1
1
1
1
1
1
1
1
1
1
1
1
1
1
1
1
1
1
1
1
1
1
1
1
1
1
1
1
1
1
1
1
1
1
1
1
1
1
1
1
1
1
1
1
1
1
1
1
1
1
1
1
1
1
1
1
1
1
1
1
1
1
1
1
1
1
1
1
1
1
1
1
1
1
1
1
1
1
1
1
1
1
1
1
1
1
1
1
1
1
1
1
1
1
1
1
1
1
1
1
1
1
1
1
1
1
1
1
1
1
1
1
1
1
1
1
1
1
1
1
1
1
1
1
1
1
1
1
1
1
1
1
1
1
1
1
1
1
1
1
1
1
1
1
1
1
1
1
1
1
1
1
1
1
1
1
1
1
1
1
1
1
1
1
1
1
1
1
1
1
1
1
1
1
1
1
1
1
1
1
1
1
1
1
1
1
1
1
1
1
1
1
1
1
1
1
1
1
1
1
1
1
1
1
1
1
1
1
1
1
1
1
1
1
1
1
1
1
1
1
1
1
1
1
1
1
1
1
1
1
1
1
1
1
1
1
1
1
1
1
1
1
1
1
1
1
1
1
1
1
1
1
1
1
1
1
1
1
1
1
1
1
1
1
1
1
1
1
1
1
1
1
1
1.27718
1.68597
2.18805
2.73057
3.12705
3.59022
3.9126
4.1182
4.0978
3.95801
3.73
3.48028
3.18784
3.04548
3.01735
2.98846
2.9885
3.00527
3.03442
3.05556
3.06969
3.07935
3.08714
3.09665
3.11096
3.12425
3.12685
3.12692
3.12559
3.12034
3.10921
3.10531
3.10502
3.10645
3.10959
3.11239
3.11396
3.11439
3.11371
3.11212
3.11098
3.11018
3.10983
3.11014
3.11169
3.1143
3.11657
3.11842
3.11931
3.11959
3.11905
3.11775
3.11615
3.11441
3.11172
3.10651
3.09724
3.0841
3.06738
3.04644
3.02432
3.00579
2.99029
2.97461
2.96167
2.95486
2.95058
2.94794
2.94448
2.93966
2.93159
2.92021
2.90991
2.90346
2.89873
2.89521
2.89253
2.88993
2.88815
2.88486
1.00564
1.04003
1.09945
1.24288
1.48114
1.76043
2.13143
2.50353
2.85742
3.01242
3.21603
3.34267
3.27872
3.20882
3.20973
3.18905
3.1353
3.0994
3.06439
3.04166
3.04462
3.0552
3.07028
3.08738
3.10182
3.11059
3.10988
3.10825
3.10697
3.10482
3.10393
3.10518
3.10822
3.11428
3.11992
3.12163
3.12184
3.12147
3.11918
3.11587
3.11483
3.11503
3.11516
3.11563
3.11678
3.11773
3.11794
3.11793
3.11758
3.11711
3.11618
3.11506
3.11404
3.11276
3.11001
3.10431
3.09454
3.0804
3.06202
3.04057
3.01943
3.00158
2.98643
2.97247
2.96061
2.95188
2.9461
2.94158
2.93727
2.93238
2.92538
2.91649
2.91073
2.90637
2.9016
2.89607
2.89152
2.88817
2.88589
2.88242
0.999998
1.00005
1.00034
1.00234
1.01233
1.04227
1.13836
1.34191
1.72757
2.31459
2.92567
3.28733
3.39605
3.42653
3.41602
3.37801
3.28128
3.1535
3.06322
3.03633
3.04053
3.05392
3.0733
3.08789
3.09238
3.09089
3.08636
3.0867
3.0904
3.09496
3.10081
3.10666
3.1116
3.11714
3.12153
3.12296
3.1234
3.12335
3.12159
3.11826
3.11694
3.11722
3.11827
3.11979
3.12114
3.1214
3.12101
3.12039
3.11933
3.11751
3.11612
3.11494
3.11418
3.11311
3.11026
3.10423
3.09404
3.07909
3.05994
3.03848
3.01776
3.00046
2.98684
2.97555
2.96511
2.95466
2.94538
2.93814
2.9324
2.92666
2.92067
2.91539
2.91139
2.90775
2.90385
2.89914
2.89379
2.88895
2.88574
2.88225
1
1
1
1
1
1.00005
1.00069
1.0049
1.02867
1.1668
1.48695
2.08706
2.60939
3.09055
3.25539
3.2458
3.25761
3.26236
3.21061
3.14875
3.12859
3.10957
3.09511
3.07865
3.0706
3.0692
3.07236
3.08027
3.0874
3.09333
3.09874
3.10402
3.10658
3.10985
3.11207
3.11218
3.11247
3.11326
3.11346
3.1132
3.11349
3.11475
3.11743
3.12083
3.1223
3.12236
3.12177
3.11999
3.11753
3.11606
3.11558
3.11511
3.11477
3.11401
3.11126
3.10505
3.09411
3.07787
3.05818
3.03699
3.01579
2.99867
2.98626
2.97598
2.9665
2.95631
2.94427
2.9351
2.92826
2.92254
2.91853
2.9157
2.91248
2.90904
2.90505
2.90032
2.89546
2.89033
2.88607
2.88209
1
1
1
1
1
1
1
1
1.00001
1.00094
1.00977
1.08673
1.34681
1.81278
2.44343
2.87375
3.24163
3.32284
3.30939
3.26649
3.23026
3.165
3.10682
3.08328
3.07866
3.08577
3.09243
3.09108
3.09454
3.09578
3.09909
3.1052
3.11046
3.11345
3.11281
3.11095
3.10879
3.10806
3.10736
3.1068
3.10667
3.10715
3.10937
3.11311
3.11541
3.11583
3.11585
3.11477
3.11298
3.11228
3.11221
3.1123
3.11282
3.1128
3.11007
3.10365
3.09229
3.07531
3.0557
3.03515
3.01235
2.99136
2.9806
2.97338
2.96598
2.95748
2.94805
2.93711
2.92809
2.92288
2.91912
2.91562
2.91223
2.90892
2.90506
2.9009
2.89663
2.89184
2.88743
2.88294
1
1
1
1
1
1
1
1
1
1
0.999995
1.00027
1.00525
1.03823
1.23393
1.63376
2.22423
2.68348
2.97671
3.15624
3.14782
3.15755
3.16633
3.15652
3.13049
3.12751
3.11808
3.11028
3.10135
3.09508
3.09679
3.10413
3.1182
3.12358
3.12232
3.11916
3.11421
3.11075
3.10881
3.10852
3.10849
3.10849
3.11048
3.11323
3.1151
3.11532
3.11525
3.11455
3.11328
3.11229
3.1117
3.11157
3.11221
3.11248
3.10971
3.10292
3.09108
3.0736
3.053
3.03154
3.00854
2.98481
2.97177
2.96507
2.96047
2.95596
2.9496
2.94069
2.93266
2.92676
2.92227
2.91736
2.91253
2.90822
2.90387
2.89948
2.895
2.89056
2.88762
2.88401
1
1
1
1
1
1
1
1
1
1
1
1
0.999996
1.00004
1.00242
1.02514
1.12684
1.48611
1.98439
2.60482
2.8782
3.0931
3.19198
3.18613
3.16931
3.12017
3.09979
3.09827
3.09705
3.09682
3.09644
3.09999
3.10962
3.12018
3.12524
3.12506
3.12138
3.11413
3.11345
3.11539
3.11654
3.11669
3.11601
3.11703
3.11823
3.11918
3.1193
3.11852
3.11701
3.11577
3.11475
3.11408
3.11387
3.1137
3.1105
3.10328
3.09114
3.07395
3.05348
3.0311
3.00786
2.98405
2.96646
2.95876
2.95453
2.95146
2.94776
2.94311
2.93657
2.93019
2.92537
2.92031
2.91481
2.90928
2.90366
2.89797
2.89222
2.88787
2.88584
2.883
1
1
1
1
1
1
1
1
1
1
1
1
1
1
0.999998
1.00002
1.00077
1.01553
1.0851
1.33833
1.84922
2.40419
2.86721
2.98329
3.06392
3.07537
3.05865
3.0765
3.08327
3.08645
3.08543
3.08321
3.0853
3.09185
3.10192
3.11089
3.11294
3.1133
3.11691
3.11875
3.11927
3.12017
3.12192
3.12266
3.12225
3.12175
3.12087
3.11887
3.11749
3.1169
3.11598
3.1151
3.11565
3.11461
3.1108
3.10313
3.09058
3.07328
3.05254
3.02968
3.00817
2.98638
2.96496
2.9552
2.95036
2.94716
2.94511
2.94234
2.93778
2.93241
2.92756
2.9225
2.91688
2.91088
2.9038
2.89491
2.88828
2.88539
2.88353
2.88073
1
1
1
1
1
1
1
1
1
1
1
1
1
1
1
1
0.999999
1.00001
1.00041
1.0068
1.06802
1.24198
1.68585
2.23504
2.80547
3.02324
3.06396
3.11031
3.09222
3.08399
3.08703
3.07836
3.06917
3.06922
3.07361
3.08359
3.09303
3.09724
3.10143
3.10463
3.10757
3.11126
3.11607
3.11868
3.11878
3.11839
3.11786
3.11635
3.1159
3.11594
3.11581
3.11636
3.11562
3.11288
3.10788
3.09979
3.08703
3.07033
3.05113
3.03074
3.01007
2.98717
2.96476
2.95431
2.94927
2.94487
2.94159
2.93945
2.93642
2.93205
2.92763
2.92305
2.91751
2.91086
2.90145
2.89182
2.88753
2.88483
2.88189
2.87817
1
1
1
1
1
1
1
1
1
1
1
1
1
1
1
1
1
1
1
0.999998
1.0003
1.00359
1.04331
1.20468
1.58907
2.13976
2.64315
2.98503
3.06634
3.10738
3.12141
3.10333
3.09402
3.09261
3.08623
3.08525
3.08662
3.08703
3.09038
3.0955
3.09908
3.10263
3.10738
3.11162
3.11224
3.11176
3.1111
3.11017
3.11044
3.11119
3.11233
3.11412
3.11359
3.11053
3.10468
3.09575
3.08253
3.06535
3.04712
3.02866
3.00774
2.98628
2.97052
2.95873
2.94799
2.94269
2.93959
2.93629
2.93325
2.92944
2.92472
2.91965
2.91401
2.90792
2.90179
2.89651
2.89085
2.88455
2.8798
2.87552
1
1
1
1
1
1
1
1
1
1
1
1
1
1
1
1
1
1
1
1
1
0.999998
1.00016
1.00304
1.0273
1.18721
1.5108
2.02909
2.51123
2.94366
3.05849
3.09617
3.12987
3.14424
3.13796
3.13061
3.11843
3.10592
3.10605
3.10816
3.10914
3.1102
3.11199
3.1132
3.11135
3.1093
3.10793
3.10683
3.10681
3.10768
3.10955
3.11202
3.11147
3.10813
3.10179
3.09277
3.07969
3.06086
3.04006
3.02181
3.00218
2.98288
2.96913
2.95999
2.9535
2.94623
2.93833
2.93402
2.9297
2.9245
2.91869
2.91271
2.90827
2.90464
2.90076
2.89625
2.89214
2.88899
2.88477
2.8789
1
1
1
1
1
1
1
1
1
1
1
1
1
1
1
1
1
1
1
1
1
1
1
0.999998
1.00007
1.00289
1.02092
1.13753
1.4704
2.00874
2.45578
2.81831
3.022
3.09155
3.1293
3.14295
3.13645
3.11869
3.11859
3.1197
3.12107
3.12403
3.12845
3.12856
3.12403
3.11982
3.11752
3.11584
3.11443
3.11375
3.11475
3.11705
3.11722
3.11486
3.10871
3.09762
3.08059
3.05793
3.03552
3.01636
2.99729
2.97817
2.96488
2.95835
2.95478
2.95081
2.94474
2.93467
2.92485
2.91774
2.91121
2.90617
2.90296
2.9002
2.89754
2.89439
2.89133
2.88809
2.88512
2.88078
1
1
1
1
1
1
1
1
1
1
1
1
1
1
1
1
1
1
1
1
1
1
1
1
1
0.999999
1.00004
1.00186
1.0202
1.11431
1.46457
2.00546
2.51248
2.7702
2.96506
3.06202
3.08487
3.08629
3.08913
3.10604
3.11333
3.11612
3.12022
3.12258
3.12346
3.12224
3.1208
3.11808
3.11642
3.11547
3.11549
3.11716
3.11811
3.11814
3.11557
3.10736
3.09132
3.06562
3.03676
3.01358
2.9924
2.97375
2.96099
2.95603
2.95442
2.95211
2.9468
2.9389
2.9297
2.92
2.90968
2.9036
2.90016
2.89689
2.89392
2.89136
2.88879
2.8858
2.88333
2.88014
1
1
1
1
1
1
1
1
1
1
1
1
1
1
1
1
1
1
1
1
1
1
1
1
1
1
1
0.999999
1.00005
1.00141
1.02448
1.11945
1.44341
1.96802
2.60036
2.84677
2.9542
3.02531
3.03376
3.06909
3.07848
3.08126
3.08888
3.09782
3.10336
3.10565
3.10819
3.11176
3.1122
3.11251
3.11209
3.1113
3.1122
3.11365
3.11346
3.10693
3.09275
3.07108
3.04357
3.01707
2.99339
2.9723
2.95898
2.95494
2.95276
2.94959
2.94428
2.93756
2.93024
2.92259
2.91386
2.90543
2.89978
2.89542
2.89129
2.88796
2.8849
2.88205
2.87986
2.87752
1
1
1
1
1
1
1
1
1
1
1
1
1
1
1
1
1
1
1
1
1
1
1
1
1
1
1
1
1
0.999999
1.00009
1.00148
1.02294
1.12802
1.45047
1.99936
2.59958
2.94887
3.02167
3.08701
3.08636
3.08425
3.09426
3.09846
3.0971
3.09582
3.09893
3.10338
3.10467
3.1048
3.10354
3.10099
3.09939
3.09837
3.09769
3.09574
3.08631
3.06755
3.04214
3.01673
2.99527
2.97612
2.96074
2.95422
2.94957
2.94451
2.93882
2.93289
2.92793
2.92228
2.91538
2.90756
2.90191
2.89778
2.89346
2.88906
2.88474
2.88106
2.87795
2.87461
1
1
1
1
1
1
1
1
1
1
1
1
1
1
1
1
1
1
1
1
1
1
1
1
1
1
1
1
1
1
1
0.999999
1.0001
1.00191
1.02251
1.15938
1.51399
2.09124
2.64244
2.97813
3.08288
3.11217
3.13977
3.13623
3.12804
3.12168
3.12046
3.12138
3.12201
3.12095
3.11743
3.11108
3.1028
3.09513
3.09104
3.08753
3.07765
3.05963
3.03691
3.01318
2.99457
2.97972
2.96658
2.95609
2.94751
2.94008
2.93351
2.92818
2.9235
2.91776
2.91132
2.90575
2.90111
2.89753
2.89388
2.89033
2.8863
2.88238
2.87829
2.87356
1
1
1
1
1
1
1
1
1
1
1
1
1
1
1
1
1
1
1
1
1
1
1
1
1
1
1
1
1
1
1
1
1
0.999999
1.00011
1.00326
1.03046
1.21671
1.62528
2.21211
2.65584
2.96797
3.10368
3.11484
3.11076
3.12605
3.12879
3.12833
3.13034
3.13289
3.13487
3.13483
3.12864
3.11495
3.10171
3.08991
3.07612
3.05682
3.03202
3.00859
2.99363
2.98186
2.97012
2.95887
2.94818
2.93763
2.92965
2.92452
2.91929
2.91321
2.90755
2.9024
2.89709
2.89318
2.8895
2.88654
2.88393
2.88187
2.87877
2.87398
1
1
1
1
1
1
1
1
1
1
1
1
1
1
1
1
1
1
1
1
1
1
1
1
1
1
1
1
1
1
1
1
1
1
1
1
1.0002
1.00631
1.04688
1.26449
1.78867
2.41615
2.78745
2.93082
3.00608
3.06057
3.06754
3.07687
3.09288
3.11211
3.12811
3.13572
3.13485
3.12568
3.11321
3.10018
3.08409
3.06152
3.03232
3.0074
2.99368
2.98238
2.97044
2.95945
2.94979
2.93913
2.92993
2.92443
2.91915
2.9129
2.90617
2.89889
2.89338
2.88937
2.88543
2.88272
2.88128
2.88074
2.87932
2.87513
1
1
1
1
1
1
1
1
1
1
1
1
1
1
1
1
1
1
1
1
1
1
1
1
1
1
1
1
1
1
1
1
1
1
1
1
1
1.00001
1.00043
1.01035
1.08686
1.3776
1.93538
2.63345
2.96382
2.99648
3.02518
3.0533
3.06308
3.06841
3.08099
3.09498
3.10681
3.11162
3.10743
3.09957
3.0865
3.06519
3.03681
3.00919
2.9923
2.98025
2.96802
2.95709
2.94809
2.93861
2.93009
2.92551
2.9207
2.9141
2.90571
2.89877
2.8941
2.8898
2.88559
2.88224
2.8793
2.87684
2.87582
2.87409
1
1
1
1
1
1
1
1
1
1
1
1
1
1
1
1
1
1
1
1
1
1
1
1
1
1
1
1
1
1
1
1
1
1
1
1
1
1
1
1.00004
1.00128
1.02086
1.1427
1.55478
2.21573
2.71754
3.05244
3.12456
3.11671
3.08727
3.08478
3.08201
3.08241
3.09306
3.09396
3.087
3.07697
3.06181
3.03843
3.01096
2.99111
2.97768
2.96479
2.95448
2.94574
2.93532
2.92763
2.92469
2.92073
2.91398
2.90606
2.90031
2.89573
2.89091
2.88597
2.88129
2.87693
2.87327
2.87279
2.87404
1
1
1
1
1
1
1
1
1
1
1
1
1
1
1
1
1
1
1
1
1
1
1
1
1
1
1
1
1
1
1
1
1
1
1
1
1
1
1
1
1
1.00014
1.00335
1.04739
1.27868
1.77771
2.41604
2.93097
3.08898
3.12294
3.13983
3.13512
3.1216
3.11213
3.10219
3.08899
3.07517
3.06048
3.0407
3.01482
2.99208
2.97517
2.96125
2.95044
2.94072
2.92971
2.92395
2.9209
2.91711
2.91043
2.90388
2.89901
2.89492
2.89089
2.88692
2.88242
2.8779
2.87394
2.87228
2.87296
1
1
1
1
1
1
1
1
1
1
1
1
1
1
1
1
1
1
1
1
1
1
1
1
1
1
1
1
1
1
1
1
1
1
1
1
1
1
1
1
1
1
1.00001
1.00064
1.01079
1.11213
1.45909
2.08237
2.66911
2.99939
3.08563
3.12775
3.14282
3.14116
3.12395
3.09625
3.07704
3.06298
3.04354
3.01859
2.99562
2.97765
2.96269
2.94803
2.93354
2.92553
2.92136
2.91677
2.9125
2.90658
2.90062
2.89617
2.89209
2.88809
2.88482
2.88151
2.87725
2.87261
2.86944
2.86777
1
1
1
1
1
1
1
1
1
1
1
1
1
1
1
1
1
1
1
1
1
1
1
1
1
1
1
1
1
1
1
1
1
1
1
1
1
1
1
1
1
1
1
1
1.00005
1.00294
1.02942
1.23993
1.81473
2.4903
2.75752
2.9746
3.09409
3.10911
3.10806
3.09202
3.06912
3.05675
3.04139
3.0193
2.99775
2.98014
2.96375
2.94809
2.93464
2.92766
2.9227
2.91727
2.91121
2.90425
2.89799
2.89298
2.88867
2.88514
2.88271
2.88039
2.87646
2.8704
2.86542
2.8626
1
1
1
1
1
1
1
1
1
1
1
1
1
1
1
1
1
1
1
1
1
1
1
1
1
1
1
1
1
1
1
1
1
1
1
1
1
1
1
1
1
1
1
1
1
1.00001
1.00031
1.01313
1.10418
1.47541
2.1175
2.81334
3.02668
3.07372
3.09528
3.08416
3.05794
3.05005
3.04245
3.02451
3.00127
2.98056
2.96313
2.94423
2.93146
2.92665
2.92335
2.91837
2.9108
2.90323
2.89716
2.89177
2.88706
2.88327
2.88018
2.87625
2.8731
2.87053
2.86633
2.86274
1
1
1
1
1
1
1
1
1
1
1
1
1
1
1
1
1
1
1
1
1
1
1
1
1
1
1
1
1
1
1
1
1
1
1
1
1
1
1
1
1
1
1
1
1
1
1
1.00011
1.00239
1.04212
1.26262
1.85534
2.49584
2.99897
3.10774
3.0956
3.06168
3.05986
3.05623
3.03938
3.0099
2.97997
2.95552
2.93489
2.92713
2.92325
2.92106
2.91554
2.90758
2.90088
2.89605
2.89104
2.88554
2.88038
2.87536
2.87052
2.86872
2.87095
2.87142
2.86533
1
1
1
1
1
1
1
1
1
1
1
1
1
1
1
1
1
1
1
1
1
1
1
1
1
1
1
1
1
1
1
1
1
1
1
1
1
1
1
1
1
1
1
1
1
1
1
1
1.00001
1.00081
1.01328
1.13957
1.61383
2.42656
2.7906
2.90422
2.99232
3.04874
3.05439
3.03901
3.01169
2.97799
2.94531
2.92944
2.92326
2.91992
2.91877
2.91209
2.90329
2.89711
2.89267
2.88958
2.88471
2.8779
2.87146
2.8665
2.8654
2.86801
2.87216
2.87089
1
1
1
1
1
1
1
1
1
1
1
1
1
1
1
1
1
1
1
1
1
1
1
1
1
1
1
1
1
1
1
1
1
1
1
1
1
1
1
1
1
1
1
1
1
1
1
1
1
1
1.00012
1.00555
1.07378
1.40154
2.10473
2.73135
3.02857
3.05264
3.03971
3.0279
3.0108
2.98543
2.9535
2.93584
2.9287
2.92497
2.91787
2.90697
2.89747
2.8924
2.88883
2.88645
2.8843
2.87724
2.8689
2.86281
2.86057
2.86339
2.87017
2.87138
1
1
1
1
1
1
1
1
1
1
1
1
1
1
1
1
1
1
1
1
1
1
1
1
1
1
1
1
1
1
1
1
1
1
1
1
1
1
1
1
1
1
1
1
1
1
1
1
1
1
1
1.00004
1.00183
1.03254
1.28336
1.88642
2.52117
2.90775
3.02034
3.02889
3.01153
2.98567
2.95886
2.93917
2.9314
2.92624
2.92106
2.91092
2.89941
2.89126
2.8859
2.88251
2.88004
2.87993
2.87479
2.86575
2.85856
2.85709
2.86177
2.86799
1
1
1
1
1
1
1
1
1
1
1
1
1
1
1
1
1
1
1
1
1
1
1
1
1
1
1
1
1
1
1
1
1
1
1
1
1
1
1
1
1
1
1
1
1
1
1
1
1
1
1
1
1.00001
1.00069
1.01764
1.16306
1.69116
2.4486
2.80368
2.90794
2.9333
2.94228
2.93954
2.92918
2.92225
2.91781
2.9159
2.90838
2.89725
2.88655
2.87864
2.87421
2.87331
2.8762
2.88082
2.8802
2.87142
2.85927
2.85462
2.85621
1
1
1
1
1
1
1
1
1
1
1
1
1
1
1
1
1
1
1
1
1
1
1
1
1
1
1
1
1
1
1
1
1
1
1
1
1
1
1
1
1
1
1
1
1
1
1
1
1
1
1
1
1
1
1.00022
1.00851
1.09919
1.48411
2.20582
2.75814
2.92992
2.95925
2.96009
2.94293
2.91611
2.90552
2.90223
2.90213
2.89573
2.88369
2.86972
2.85919
2.85542
2.8596
2.87438
2.88296
2.88239
2.8731
2.85548
2.84847
1
1
1
1
1
1
1
1
1
1
1
1
1
1
1
1
1
1
1
1
1
1
1
1
1
1
1
1
1
1
1
1
1
1
1
1
1
1
1
1
1
1
1
1
1
1
1
1
1
1
1
1
1
1
1
1.0001
1.00318
1.05647
1.36118
1.98154
2.55338
2.89003
2.95439
2.95107
2.93069
2.91561
2.90839
2.90626
2.90753
2.90247
2.88749
2.86191
2.84499
2.84324
2.85011
2.87032
2.8787
2.87597
2.86818
2.84763
1
1
1
1
1
1
1
1
1
1
1
1
1
1
1
1
1
1
1
1
1
1
1
1
1
1
1
1
1
1
1
1
1
1
1
1
1
1
1
1
1
1
1
1
1
1
1
1
1
1
1
1
1
1
1
1
1.00002
1.00185
1.02884
1.24559
1.83297
2.50962
2.73775
2.83214
2.89103
2.89253
2.88095
2.87885
2.89022
2.90784
2.91018
2.8988
2.86994
2.84055
2.83563
2.84211
2.8614
2.87146
2.86696
2.8553
1
1
1
1
1
1
1
1
1
1
1
1
1
1
1
1
1
1
1
1
1
1
1
1
1
1
1
1
1
1
1
1
1
1
1
1
1
1
1
1
1
1
1
1
1
1
1
1
1
1
1
1
1
1
1
1
1
1.00001
1.00057
1.01904
1.15514
1.64258
2.30286
2.75764
2.89524
2.88087
2.8389
2.8228
2.82894
2.86184
2.89911
2.90534
2.89731
2.87276
2.84317
2.83334
2.83634
2.8481
2.85553
2.8775
1
1
1
1
1
1
1
1
1
1
1
1
1
1
1
1
1
1
1
1
1
1
1
1
1
1
1
1
1
1
1
1
1
1
1
1
1
1
1
1
1
1
1
1
1
1
1
1
1
1
1
1
1
1
1
1
1
1
1
1.00035
1.00776
1.1037
1.47893
2.11831
2.64685
2.8882
2.91173
2.88805
2.82739
2.81776
2.83595
2.87419
2.88885
2.88418
2.87228
2.84789
2.82983
2.83118
2.84013
3.14764
1
1
1
1
1
1
1
1
1
1
1
1
1
1
1
1
1
1
1
1
1
1
1
1
1
1
1
1
1
1
1
1
1
1
1
1
1
1
1
1
1
1
1
1
1
1
1
1
1
1
1
1
1
1
1
1
1
1
1
1
1.00009
1.00435
1.06058
1.36845
1.94685
2.5075
2.84576
2.89466
2.89821
2.84768
2.8166
2.81984
2.83712
2.8654
2.87411
2.86596
2.84378
2.85999
3.02732
4.33255
1
1
1
1
1
1
1
1
1
1
1
1
1
1
1
1
1
1
1
1
1
1
1
1
1
1
1
1
1
1
1
1
1
1
1
1
1
1
1
1
1
1
1
1
1
1
1
1
1
1
1
1
1
1
1
1
1
1
1
1
1
1.00004
1.00217
1.03437
1.2596
1.82658
2.37135
2.7536
2.87713
2.89273
2.87351
2.81738
2.80263
2.81141
2.84509
2.87334
2.96585
3.42272
4.42677
5.99642
1
1
1
1
1
1
1
1
1
1
1
1
1
1
1
1
1
1
1
1
1
1
1
1
1
1
1
1
1
1
1
1
1
1
1
1
1
1
1
1
1
1
1
1
1
1
1
1
1
1
1
1
1
1
1
1
1
1
1
1
1
1
1.00001
1.00089
1.02105
1.18553
1.69229
2.26199
2.64133
2.85831
2.88172
2.87465
2.81299
2.79792
2.83548
3.0849
3.8676
5.07376
6.09087
6.56962
1
1
1
1
1
1
1
1
1
1
1
1
1
1
1
1
1
1
1
1
1
1
1
1
1
1
1
1
1
1
1
1
1
1
1
1
1
1
1
1
1
1
1
1
1
1
1
1
1
1
1
1
1
1
1
1
1
1
1
1
1
1
1
1
1.00046
1.01281
1.12549
1.55304
2.15766
2.554
2.81152
2.87752
2.92782
3.09188
3.52593
4.55267
5.81483
6.42756
6.74795
6.76422
1
1
1
1
1
1
1
1
1
1
1
1
1
1
1
1
1
1
1
1
1
1
1
1
1
1
1
1
1
1
1
1
1
1
1
1
1
1
1
1
1
1
1
1
1
1
1
1
1
1
1
1
1
1
1
1
1
1
1
1
1
1
1
1
1
1.00022
1.00706
1.08302
1.44248
2.04721
2.51886
2.93756
3.53223
4.27433
5.10716
5.8876
6.41284
6.66146
6.78333
6.75368
1
1
1
1
1
1
1
1
1
1
1
1
1
1
1
1
1
1
1
1
1
1
1
1
1
1
1
1
1
1
1
1
1
1
1
1
1
1
1
1
1
1
1
1
1
1
1
1
1
1
1
1
1
1
1
1
1
1
1
1
1
1
1
1
1
1
1.00009
1.00406
1.05997
1.40451
2.30245
3.5953
5.03552
6.27696
7.35097
7.54758
7.30592
6.85686
6.68514
6.65912
)
;

boundaryField
{
    inlet
    {
        type            fixedValue;
        value           uniform 1;
    }
    outlet
    {
        type            zeroGradient;
    }
    bottom
    {
        type            symmetryPlane;
    }
    top
    {
        type            symmetryPlane;
    }
    obstacle
    {
        type            zeroGradient;
    }
    defaultFaces
    {
        type            empty;
    }
}


// ************************************************************************* //
