/*--------------------------------*- C++ -*----------------------------------*\
| =========                 |                                                 |
| \\      /  F ield         | OpenFOAM: The Open Source CFD Toolbox           |
|  \\    /   O peration     | Version:  2206                                  |
|   \\  /    A nd           | Website:  www.openfoam.com                      |
|    \\/     M anipulation  |                                                 |
\*---------------------------------------------------------------------------*/
FoamFile
{
    version     2.0;
    format      ascii;
    arch        "LSB;label=32;scalar=64";
    class       volVectorField;
    location    "0.12";
    object      U;
}
// * * * * * * * * * * * * * * * * * * * * * * * * * * * * * * * * * * * * * //

dimensions      [0 1 -1 0 0 0 0];

internalField   nonuniform List<vector> 
4800
(
(3.36364 5.07088e-15 0)
(3.36364 2.32207e-14 0)
(3.36364 2.13704e-14 0)
(3.36364 -1.46359e-15 0)
(3.36364 -4.27741e-15 0)
(3.36364 3.80632e-14 0)
(3.36364 1.08085e-13 0)
(3.36364 1.40381e-13 0)
(3.36364 1.42078e-13 0)
(3.36364 1.44505e-13 0)
(3.36364 1.60184e-13 0)
(3.36364 1.30716e-13 0)
(3.36364 5.52595e-14 0)
(3.36364 -2.26339e-14 0)
(3.36364 -7.1679e-15 0)
(3.36364 5.74366e-14 0)
(3.36364 4.71348e-14 0)
(3.36364 2.72514e-14 0)
(3.36364 -7.21291e-14 0)
(3.36364 -9.81036e-14 0)
(3.36364 -1.349e-13 0)
(3.36364 -1.35197e-13 0)
(3.36364 -1.20694e-13 0)
(3.36364 -7.10189e-14 0)
(3.36364 -1.89033e-15 0)
(3.36364 4.82617e-14 0)
(3.36364 1.28055e-14 0)
(3.36364 -3.31224e-14 0)
(3.36364 2.08036e-15 0)
(3.36364 6.61448e-15 0)
(3.36364 3.2639e-15 0)
(3.36364 -3.12521e-14 0)
(3.36364 -6.26175e-14 0)
(3.36364 -1.40511e-13 0)
(3.36364 -1.26505e-13 0)
(3.36364 -1.03815e-13 0)
(3.36364 -2.23139e-14 0)
(3.36364 -6.06771e-15 0)
(3.36364 1.81898e-14 0)
(3.36364 -1.25222e-14 0)
(3.36364 -2.31707e-15 0)
(3.36364 -3.04719e-15 0)
(3.36364 -1.70296e-14 0)
(3.36364 -2.3004e-16 0)
(3.36364 2.66113e-14 0)
(3.36364 5.82101e-14 0)
(3.36364 1.71396e-13 0)
(3.36364 1.82625e-13 0)
(3.36364 1.48526e-13 0)
(3.36364 1.38794e-13 0)
(3.36364 1.34677e-13 0)
(3.36364 1.13036e-13 0)
(3.36364 -2.8905e-15 0)
(3.36364 -1.19727e-13 0)
(3.36364 -8.04072e-14 0)
(3.36364 -2.71047e-14 0)
(3.36364 -1.28656e-13 0)
(3.36364 -1.57337e-13 0)
(3.36364 -1.50313e-13 0)
(3.36364 -2.06159e-13 0)
(3.36364 -2.58815e-13 0)
(3.36364 -1.68859e-13 0)
(3.36364 -1.1722e-13 0)
(3.36364 -7.33793e-14 0)
(3.36364 5.04087e-15 0)
(3.36364 2.56978e-14 0)
(3.36364 -5.21257e-14 0)
(3.36364 -9.37229e-14 0)
(3.36364 -4.53478e-14 0)
(3.36364 4.00669e-14 0)
(3.36364 6.95753e-14 0)
(3.36364 -1.99234e-14 0)
(3.36364 -3.70797e-14 0)
(3.36364 -1.31449e-13 0)
(3.36364 -2.31273e-13 0)
(3.36364 -1.72563e-13 0)
(3.36364 -8.1084e-14 0)
(3.36364 -9.60266e-14 0)
(3.36364 -4.94052e-14 0)
(3.36364 -9.62557e-14 0)
(3.36364 -2.39708e-15 0)
(3.36364 -1.86032e-14 0)
(3.36364 -4.13071e-14 0)
(3.36364 -4.45544e-14 0)
(3.36364 -1.53727e-14 0)
(3.36364 -2.1347e-14 0)
(3.36364 -6.57113e-15 0)
(3.36364 -2.21372e-14 0)
(3.36364 -3.95802e-14 0)
(3.36364 -2.92384e-14 0)
(3.36364 -1.99134e-14 0)
(3.36364 -3.00719e-15 0)
(3.36364 3.80332e-14 0)
(3.36364 6.7335e-14 0)
(3.36364 7.48529e-14 0)
(3.36364 3.38125e-14 0)
(3.36364 3.87367e-14 0)
(3.36364 1.98934e-14 0)
(3.36364 2.3404e-15 0)
(3.36364 -1.3621e-13 0)
(3.36364 -1.02981e-13 0)
(3.36364 -6.23041e-14 0)
(3.36364 -6.59114e-15 0)
(3.36364 3.94401e-15 0)
(3.36364 1.24765e-13 0)
(3.36364 1.49182e-13 0)
(3.36364 1.56524e-13 0)
(3.36364 1.5385e-13 0)
(3.36364 1.02254e-13 0)
(3.36364 8.87287e-14 0)
(3.36364 6.98787e-14 0)
(3.36364 1.76427e-13 0)
(3.36364 4.4391e-14 0)
(3.36364 -5.54762e-14 0)
(3.36364 -1.39574e-13 0)
(3.36364 -1.00837e-13 0)
(3.36364 6.80117e-15 0)
(3.36364 8.22775e-14 0)
(3.36364 8.43212e-14 0)
(3.36364 9.323e-14 0)
(3.36364 -7.95137e-15 0)
(3.36364 -8.46813e-16 0)
(3.36364 -8.31477e-15 0)
(3.36364 -2.07402e-14 0)
(3.36364 -3.38358e-14 0)
(3.36364 -1.03765e-13 0)
(3.36364 -1.48542e-13 0)
(3.36364 -1.79041e-13 0)
(3.36364 -2.1335e-13 0)
(3.36364 -1.25335e-13 0)
(3.36364 -7.88469e-15 0)
(3.36364 6.23608e-14 0)
(3.36364 1.15997e-13 0)
(3.36364 9.35362e-14 0)
(3.36364 -1.03651e-14 0)
(3.36364 -2.95451e-14 0)
(3.36364 -5.17789e-14 0)
(3.36364 -7.42328e-14 0)
(3.36364 -9.94405e-14 0)
(3.36364 -6.02304e-14 0)
(3.36364 3.57995e-14 0)
(3.36364 6.97187e-14 0)
(3.36364 9.65867e-14 0)
(3.36364 1.3386e-13 0)
(3.36364 1.29389e-13 0)
(3.36364 1.88349e-13 0)
(3.36364 2.55918e-13 0)
(3.36364 2.5222e-13 0)
(3.36364 1.31133e-13 0)
(3.36364 6.99621e-14 0)
(3.36364 8.97188e-14 0)
(3.36364 3.76498e-14 0)
(3.36364 1.42925e-14 0)
(3.36364 -5.30125e-14 0)
(3.36364 -1.30996e-13 0)
(3.36364 -1.34883e-13 0)
(3.36364 -9.90938e-14 0)
(3.36364 -4.61746e-15 0)
(3.36364 -6.74316e-14 0)
(3.36364 -1.30886e-14 0)
(3.36364 3.41992e-14 0)
(3.36364 5.28858e-14 0)
(3.36364 5.07654e-14 0)
(3.36364 5.12188e-14 0)
(3.36364 -4.12971e-14 0)
(3.36364 -9.72201e-14 0)
(3.36364 -9.38962e-14 0)
(3.36364 -8.6745e-14 0)
(3.36364 -6.57314e-14 0)
(3.36364 -2.39908e-14 0)
(3.36364 -1.09786e-14 0)
(3.36364 1.88333e-14 0)
(3.36364 2.35241e-14 0)
(3.36364 -6.59381e-14 0)
(3.36364 -2.1201e-13 0)
(3.36364 -2.07899e-13 0)
(3.36364 -1.32646e-13 0)
(3.36364 -8.27943e-14 0)
(3.36364 -1.16473e-13 0)
(3.36364 -8.41245e-14 0)
(3.36364 -2.61412e-14 0)
(3.36364 1.20988e-14 0)
(3.36364 1.70996e-14 0)
(3.36364 9.10724e-14 0)
(3.36364 9.78036e-14 0)
(3.36364 1.48166e-13 0)
(3.36364 1.95404e-13 0)
(3.36364 1.24298e-13 0)
(3.36364 4.42943e-14 0)
(3.36364 1.97767e-14 0)
(3.36364 3.0732e-14 0)
(3.36364 -3.80899e-14 0)
(3.36364 -1.91533e-14 0)
(3.36364 -1.13553e-14 0)
(3.36364 -5.63164e-14 0)
(3.36364 -9.88304e-14 0)
(3.36364 -8.54781e-14 0)
(3.36364 -5.80234e-14 0)
(3.36364 -3.62129e-14 0)
(3.36364 -1.0783e-14 0)
(3.36364 1.02384e-14 0)
(3.36364 2.71347e-14 0)
(3.36364 7.3316e-14 0)
(3.36364 1.55127e-14 0)
(3.36364 -1.72696e-14 0)
(3.36364 -3.91068e-14 0)
(3.36364 -4.34342e-14 0)
(3.36364 3.2839e-14 0)
(3.36364 9.90304e-14 0)
(3.36364 8.30443e-14 0)
(3.36364 3.846e-14 0)
(3.36364 3.45026e-14 0)
(3.36364 -2.49843e-14 0)
(3.36364 -6.36677e-14 0)
(3.36364 -1.21791e-13 0)
(3.36364 -1.944e-13 0)
(3.36364 -9.75535e-14 0)
(3.36364 -5.13755e-14 0)
(3.36364 -7.79301e-14 0)
(3.36364 -8.09406e-14 0)
(3.36364 -5.73632e-14 0)
(3.36364 -6.64781e-14 0)
(3.36364 -2.15704e-15 0)
(3.36364 1.31003e-13 0)
(3.36364 1.78017e-13 0)
(3.36364 1.1552e-13 0)
(3.36364 7.63365e-14 0)
(3.36364 2.14504e-14 0)
(3.36364 -5.14822e-14 0)
(3.36364 1.67029e-14 0)
(3.36364 2.67079e-14 0)
(3.36364 8.51547e-14 0)
(3.36364 2.17804e-14 0)
(3.36364 7.36894e-14 0)
(3.36364 1.00321e-13 0)
(3.36364 1.10336e-13 0)
(3.36364 1.06118e-13 0)
(3.36364 2.29973e-14 0)
(3.36364 -3.97335e-14 0)
(3.36364 -9.34158e-15 0)
(3.36364 -3.96669e-14 0)
(3.36364 -4.31508e-14 0)
(3.36364 -2.29506e-14 0)
(3.36364 -1.67996e-14 0)
(3.36364 -1.06685e-16 0)
(3.36364 2.02802e-14 0)
(3.36364 5.42727e-14 0)
(3.36364 6.14039e-14 0)
(3.36364 9.2806e-14 0)
(3.36364 2.55778e-14 0)
(3.36364 2.09436e-14 0)
(3.36364 1.41991e-14 0)
(3.36364 4.76682e-14 0)
(3.36364 3.11987e-14 0)
(3.36364 8.37478e-15 0)
(3.36364 -2.3274e-14 0)
(3.36364 -2.65546e-14 0)
(3.36364 -2.57244e-14 0)
(3.36364 -7.5313e-15 0)
(3.36364 6.63748e-14 0)
(3.36364 7.36727e-14 0)
(3.36364 -2.6988e-14 0)
(3.36364 -4.38009e-14 0)
(3.36364 1.22995e-13 0)
(3.36364 5.42627e-14 0)
(3.36364 -6.13873e-14 0)
(3.36364 -1.75994e-13 0)
(3.36364 -1.91583e-13 0)
(3.36364 -1.1559e-13 0)
(3.36364 -7.60565e-14 0)
(3.36364 -8.38345e-14 0)
(3.36364 -2.25372e-14 0)
(3.36364 1.27789e-14 0)
(3.36364 8.45546e-14 0)
(3.36364 1.12343e-13 0)
(3.36364 1.58687e-13 0)
(3.36364 7.39994e-14 0)
(3.36364 -3.14054e-14 0)
(3.36364 -1.32026e-13 0)
(3.36364 -1.33172e-13 0)
(3.36364 1.54227e-14 0)
(3.36364 1.01584e-14 0)
(3.36364 1.28022e-15 0)
(3.36364 2.27739e-14 0)
(3.36364 8.16474e-15 0)
(3.36364 3.70531e-14 0)
(3.36364 6.89019e-14 0)
(3.36364 9.53465e-14 0)
(3.36364 1.89999e-14 0)
(3.36364 -2.09803e-14 0)
(3.36364 8.92487e-15 0)
(3.36364 4.41743e-14 0)
(3.36364 6.72316e-14 0)
(3.36364 5.00086e-14 0)
(3.36364 9.95505e-15 0)
(3.36364 2.09036e-14 0)
(3.36364 4.50745e-14 0)
(3.36364 5.55729e-14 0)
(3.36364 8.23376e-14 0)
(3.36364 1.75517e-13 0)
(3.36364 1.83648e-13 0)
(3.36364 6.71083e-14 0)
(3.36364 4.2714e-14 0)
(3.36364 9.42829e-14 0)
(3.36364 -1.80031e-15 0)
(3.36364 -1.06118e-13 0)
(3.36364 -1.29596e-13 0)
(3.36364 -1.35563e-13 0)
(3.36364 -1.06772e-13 0)
(3.36364 -1.41824e-13 0)
(3.36364 -1.30703e-13 0)
(3.36364 -8.35544e-14 0)
(3.36364 -3.92935e-14 0)
(3.36364 -1.44025e-14 0)
(3.36364 2.11537e-14 0)
(3.36364 4.50111e-14 0)
(3.36364 4.26674e-14 0)
(3.36364 -3.61929e-14 0)
(3.36364 -9.51731e-14 0)
(3.36364 -1.1781e-13 0)
(3.36364 1.81665e-14 0)
(3.36364 1.65962e-14 0)
(3.36364 7.77801e-15 0)
(3.36364 7.82468e-15 0)
(3.36364 3.16021e-14 0)
(3.36364 1.51093e-14 0)
(3.36364 -9.78169e-15 0)
(3.36364 -1.30789e-14 0)
(3.36364 -4.72715e-14 0)
(3.36364 -4.35842e-14 0)
(3.36364 -3.4966e-14 0)
(3.36364 -3.74731e-14 0)
(3.36364 -7.86502e-14 0)
(3.36364 3.04386e-15 0)
(3.36364 3.87767e-14 0)
(3.36364 7.41461e-14 0)
(3.36364 3.71464e-14 0)
(3.36364 4.49344e-14 0)
(3.36364 4.80716e-14 0)
(3.36364 6.56213e-14 0)
(3.36364 6.99221e-14 0)
(3.36364 5.42527e-14 0)
(3.36364 2.8755e-14 0)
(3.36364 -2.55677e-14 0)
(3.36364 -1.55233e-13 0)
(3.36364 -1.09722e-13 0)
(3.36364 -6.89986e-14 0)
(3.36364 -1.62795e-14 0)
(3.36364 -5.30158e-14 0)
(3.36364 -1.1642e-13 0)
(3.36364 -1.85769e-13 0)
(3.36364 -1.39614e-13 0)
(3.36364 -1.14616e-13 0)
(3.36364 -1.11796e-13 0)
(3.36364 -1.30526e-13 0)
(3.36364 -1.16193e-13 0)
(3.36364 -1.1501e-13 0)
(3.36364 -1.24025e-13 0)
(3.36364 -1.25555e-13 0)
(3.36364 -9.56544e-14 0)
(3.36364 1.50693e-15 0)
(3.36364 -2.52477e-14 0)
(3.36364 -2.64879e-14 0)
(3.36364 -2.5021e-14 0)
(3.36364 2.74381e-14 0)
(3.36364 4.19339e-14 0)
(3.36364 2.92517e-14 0)
(3.36364 -3.13921e-14 0)
(3.36364 -1.96134e-14 0)
(3.36364 -1.57527e-14 0)
(3.36364 -4.31374e-14 0)
(3.36364 -1.27372e-13 0)
(3.36364 -1.51409e-13 0)
(3.36364 -4.34608e-14 0)
(3.36364 2.98818e-14 0)
(3.36364 7.58764e-14 0)
(3.36364 4.47177e-14 0)
(3.36364 4.96386e-14 0)
(3.36364 5.53429e-14 0)
(3.36364 -2.42475e-14 0)
(3.36364 -1.97634e-14 0)
(3.36364 7.78268e-14 0)
(3.36364 5.43927e-14 0)
(3.36364 -2.59311e-14 0)
(3.36364 -8.6875e-14 0)
(3.36364 -1.7269e-13 0)
(3.36364 -2.27439e-13 0)
(3.36364 -1.55497e-13 0)
(3.36364 -1.52893e-13 0)
(3.36364 -1.22044e-13 0)
(3.36364 -1.32136e-13 0)
(3.36364 -6.60414e-14 0)
(3.36364 -1.1815e-13 0)
(3.36364 -1.10699e-13 0)
(3.36364 -1.34473e-13 0)
(3.36364 -1.54923e-13 0)
(3.36364 -1.45615e-13 0)
(3.36364 -5.72566e-14 0)
(3.36364 -1.52326e-14 0)
(3.36364 -2.98369e-14 0)
(3.36364 1.3579e-14 0)
(3.36364 8.58815e-15 0)
(3.36364 2.75848e-14 0)
(3.36364 7.26792e-15 0)
(3.36364 -2.79115e-14 0)
(3.36364 1.30089e-14 0)
(3.36364 -3.36725e-16 0)
(3.36364 4.50745e-15 0)
(3.36364 4.18539e-14 0)
(3.36364 4.06437e-14 0)
(3.36364 -1.945e-14 0)
(3.36364 -5.75199e-14 0)
(3.36364 -2.79482e-14 0)
(3.36364 4.29074e-14 0)
(3.36364 8.73584e-14 0)
(3.36364 1.25678e-13 0)
(3.36364 9.69167e-14 0)
(3.36364 3.43293e-14 0)
(3.36364 2.63579e-14 0)
(3.36364 -7.88803e-15 0)
(3.36364 8.56148e-15 0)
(3.36364 1.5506e-14 0)
(3.36364 -6.24441e-15 0)
(3.36364 -9.40262e-14 0)
(3.36364 -1.86476e-13 0)
(3.36364 -1.85309e-13 0)
(3.36364 -1.78454e-13 0)
(3.36364 -2.04289e-13 0)
(3.36364 -9.0579e-14 0)
(3.36364 3.51361e-14 0)
(3.36364 6.13606e-14 0)
(3.36364 5.14022e-14 0)
(3.36364 6.38177e-14 0)
(3.36364 4.87217e-14 0)
(3.36364 2.43009e-14 0)
(3.36364 -3.16455e-14 0)
(3.36364 -2.52177e-14 0)
(3.36364 -5.74232e-14 0)
(3.36364 3.41526e-14 0)
(3.36364 3.55285e-14 0)
(3.36364 -1.00384e-14 0)
(3.36364 1.86232e-14 0)
(3.36364 1.22188e-14 0)
(3.36364 1.31356e-14 0)
(3.36364 -2.17538e-14 0)
(3.36364 -1.15087e-14 0)
(3.36364 -1.20287e-14 0)
(3.36364 2.32407e-14 0)
(3.36364 1.35123e-14 0)
(3.36364 2.66713e-16 0)
(3.36364 -3.26623e-14 0)
(3.36364 1.41925e-14 0)
(3.36364 3.96735e-15 0)
(3.36364 2.63012e-14 0)
(3.36364 1.49092e-14 0)
(3.36364 2.05836e-14 0)
(3.36364 -1.42425e-14 0)
(3.36364 -4.74349e-14 0)
(3.36364 -1.53176e-13 0)
(3.36364 -1.08989e-13 0)
(3.36364 -1.08875e-13 0)
(3.36364 -1.3395e-13 0)
(3.36364 -9.82036e-14 0)
(3.36364 -8.63082e-14 0)
(3.36364 -1.81695e-13 0)
(3.36364 -1.31093e-13 0)
(3.36364 -2.49076e-14 0)
(3.36364 5.03087e-15 0)
(3.36364 3.20355e-14 0)
(3.36364 2.89283e-14 0)
(3.36364 3.18088e-14 0)
(3.36364 1.99234e-14 0)
(3.36364 -1.29856e-14 0)
(3.36364 -5.13022e-14 0)
(3.36364 -6.68249e-14 0)
(3.36364 -2.72247e-14 0)
(3.36364 2.02602e-14 0)
(3.36364 -2.21172e-14 0)
(3.36364 -3.45426e-14 0)
(3.36364 -7.26468e-14 0)
(3.36364 -3.63396e-14 0)
(3.36364 -5.25091e-15 0)
(3.36364 3.5006e-15 0)
(3.36364 7.09789e-14 0)
(3.36364 1.42688e-13 0)
(3.36364 1.20174e-13 0)
(3.36364 8.45879e-14 0)
(3.36364 3.18722e-14 0)
(3.36364 -7.25459e-15 0)
(3.36364 -4.50078e-16 0)
(3.36364 1.55894e-14 0)
(3.36364 2.13637e-14 0)
(3.36364 -8.47146e-15 0)
(3.36364 -1.1662e-14 0)
(3.36364 1.25488e-14 0)
(3.36364 1.03818e-14 0)
(3.36364 -1.24418e-13 0)
(3.36364 -1.81915e-13 0)
(3.36364 -1.56404e-13 0)
(3.36364 -5.35793e-14 0)
(3.36364 -6.80618e-14 0)
(3.36364 -6.00904e-14 0)
(3.36364 -1.66895e-13 0)
(3.36364 -1.68089e-13 0)
(3.36364 -1.28836e-13 0)
(3.36364 -1.69649e-13 0)
(3.36364 -6.55013e-14 0)
(3.36364 -1.01618e-14 0)
(3.36364 -1.35257e-14 0)
(3.36364 -2.15304e-14 0)
(3.36364 -1.50826e-14 0)
(3.36364 -3.79132e-14 0)
(3.36364 -7.89036e-14 0)
(3.36364 -1.73553e-13 0)
(3.36364 -2.16697e-13 0)
(3.36364 -1.88916e-13 0)
(3.36364 -1.30202e-13 0)
(3.36364 -2.92684e-14 0)
(3.36364 2.34641e-14 0)
(3.36364 1.10421e-13 0)
(3.36364 2.7218e-14 0)
(3.36364 3.16021e-14 0)
(3.36364 9.666e-14 0)
(3.36364 1.46729e-13 0)
(3.36364 1.52183e-13 0)
(3.36364 1.18707e-13 0)
(3.36364 6.06238e-14 0)
(3.36364 7.97971e-14 0)
(3.36364 9.38495e-14 0)
(3.36364 9.24026e-14 0)
(3.36364 1.25712e-13 0)
(3.36364 1.44432e-13 0)
(3.36364 1.24295e-13 0)
(3.36364 6.78917e-14 0)
(3.36364 5.94436e-14 0)
(3.36364 1.25122e-14 0)
(3.36364 3.21189e-14 0)
(3.36364 2.06036e-14 0)
(3.36364 4.33808e-14 0)
(3.36364 1.35723e-14 0)
(3.36364 -7.08556e-14 0)
(3.36364 -1.20324e-13 0)
(3.36364 -2.12723e-13 0)
(3.36364 -2.19098e-13 0)
(3.36364 -2.08533e-13 0)
(3.36364 -1.99074e-13 0)
(3.36364 -1.3773e-13 0)
(3.36364 2.96051e-14 0)
(3.36364 1.02734e-13 0)
(3.36364 1.45118e-13 0)
(3.36364 1.30479e-13 0)
(3.36364 8.25109e-14 0)
(3.36364 -1.55694e-15 0)
(3.36364 -2.79448e-14 0)
(3.36364 -4.13771e-14 0)
(3.36364 -5.28491e-14 0)
(3.36364 2.44942e-14 0)
(3.36364 1.48549e-13 0)
(3.36364 1.78928e-13 0)
(3.36364 1.81272e-13 0)
(3.36364 3.13221e-14 0)
(3.36364 -9.4683e-15 0)
(3.36364 1.47659e-14 0)
(3.36364 -6.60114e-15 0)
(3.36364 2.92384e-15 0)
(3.36364 -3.05386e-15 0)
(3.36364 -1.50359e-15 0)
(3.36364 5.09221e-14 0)
(3.36364 8.56981e-14 0)
(3.36364 1.63285e-13 0)
(3.36364 2.18291e-13 0)
(3.36364 1.9553e-13 0)
(3.36364 1.60758e-13 0)
(3.36364 5.36793e-14 0)
(3.36364 -3.06653e-14 0)
(3.36364 -3.10254e-14 0)
(3.36364 7.37227e-14 0)
(3.36364 1.71533e-13 0)
(3.36364 1.62751e-13 0)
(3.36364 3.4876e-14 0)
(3.36364 -3.65396e-14 0)
(3.36364 -6.83951e-14 0)
(3.36364 -8.50814e-15 0)
(3.36364 2.82782e-14 0)
(3.36364 -4.63147e-14 0)
(3.36364 -9.31027e-14 0)
(3.36364 -9.74668e-14 0)
(3.36364 -2.09703e-15 0)
(3.36364 1.17187e-13 0)
(3.36364 1.11863e-13 0)
(3.36364 1.59924e-13 0)
(3.36364 2.19495e-13 0)
(3.36364 7.1699e-14 0)
(3.36364 -1.97034e-15 0)
(3.36364 5.5743e-14 0)
(3.36364 1.82281e-13 0)
(3.36364 2.24672e-13 0)
(3.36364 1.96417e-13 0)
(3.36364 1.96514e-13 0)
(3.36364 1.93177e-13 0)
(3.36364 -2.96018e-14 0)
(3.36364 -3.2749e-14 0)
(3.36364 -6.90753e-14 0)
(3.36364 -7.22758e-14 0)
(3.36364 -8.15507e-14 0)
(3.36364 -7.37494e-14 0)
(3.36364 -3.71197e-14 0)
(3.36364 -4.80816e-14 0)
(3.36364 -7.87436e-14 0)
(3.36364 -7.47029e-14 0)
(3.36364 4.45077e-15 0)
(3.36364 2.88183e-14 0)
(3.36364 8.56481e-15 0)
(3.36364 1.46825e-14 0)
(3.36364 3.29023e-14 0)
(3.36364 4.97586e-14 0)
(3.36364 3.96168e-14 0)
(3.36364 1.01468e-13 0)
(3.36364 1.23445e-13 0)
(3.36364 4.37409e-14 0)
(3.36364 5.06087e-15 0)
(3.36364 1.17087e-14 0)
(3.36364 7.76401e-14 0)
(3.36364 1.19701e-13 0)
(3.36364 1.75507e-13 0)
(3.36364 1.21618e-13 0)
(3.36364 6.87085e-14 0)
(3.36364 2.1137e-14 0)
(3.36364 2.69347e-14 0)
(3.36364 1.04918e-14 0)
(3.36364 2.64079e-14 0)
(3.36364 6.7485e-14 0)
(3.36364 8.87487e-14 0)
(3.36364 1.66895e-13 0)
(3.36364 2.77858e-13 0)
(3.36364 3.02746e-13 0)
(3.36364 2.30313e-13 0)
(3.36364 1.85082e-13 0)
(3.36364 1.27145e-13 0)
(3.36364 1.50917e-13 0)
(3.36364 -3.11454e-14 0)
(3.36364 -2.56811e-14 0)
(3.36364 -4.4321e-14 0)
(3.36364 -5.50128e-14 0)
(3.36364 -4.31608e-14 0)
(3.36364 -3.42492e-14 0)
(3.36364 -8.79552e-14 0)
(3.36364 -1.06325e-13 0)
(3.36364 -1.33916e-13 0)
(3.36364 -1.63362e-13 0)
(3.36364 -1.27822e-13 0)
(3.36364 -7.64365e-14 0)
(3.36364 -7.08489e-14 0)
(3.36364 -3.86667e-14 0)
(3.36364 1.02318e-14 0)
(3.36364 4.18639e-14 0)
(3.36364 3.39292e-14 0)
(3.36364 -4.98086e-15 0)
(3.36364 4.19406e-14 0)
(3.36364 9.24926e-14 0)
(3.36364 6.37277e-14 0)
(3.36364 6.34776e-14 0)
(3.36364 2.56244e-14 0)
(3.36364 2.08436e-14 0)
(3.36364 6.9542e-14 0)
(3.36364 8.15141e-14 0)
(3.36364 4.49278e-14 0)
(3.36364 1.06885e-14 0)
(3.36364 2.57911e-14 0)
(3.36364 4.48611e-14 0)
(3.36364 -3.81399e-15 0)
(3.36364 2.93384e-15 0)
(3.36364 1.59518e-13 0)
(3.36364 2.3286e-13 0)
(3.36364 3.05113e-13 0)
(3.36364 2.81235e-13 0)
(3.36364 2.10956e-13 0)
(3.36364 1.74193e-13 0)
(3.36364 -2.05202e-14 0)
(3.36364 -6.72508e-14 0)
(3.36364 1.49959e-14 0)
(3.36364 -4.52078e-15 0)
(3.36364 -5.70232e-14 0)
(3.36364 -1.31096e-13 0)
(3.36364 -1.09579e-13 0)
(3.36364 -4.69681e-14 0)
(3.36364 -2.1207e-14 0)
(3.36364 -4.90285e-14 0)
(3.36364 -4.08737e-14 0)
(3.36364 -5.20223e-14 0)
(3.36364 -6.63948e-14 0)
(3.36364 -8.6975e-14 0)
(3.36364 -6.13073e-14 0)
(3.36364 -5.49828e-14 0)
(3.36364 -3.69964e-14 0)
(3.36364 -8.79485e-15 0)
(3.36364 1.27355e-15 0)
(3.36364 2.19071e-14 0)
(3.36364 5.34492e-14 0)
(3.36364 1.39294e-13 0)
(3.36364 1.78287e-13 0)
(3.36364 2.46329e-13 0)
(3.36364 2.46996e-13 0)
(3.36364 1.06848e-13 0)
(3.36364 5.96336e-14 0)
(3.36364 9.64133e-14 0)
(3.36364 9.42063e-14 0)
(3.36364 8.31744e-14 0)
(3.36364 5.20823e-14 0)
(3.36364 1.08745e-13 0)
(3.36364 1.43521e-13 0)
(3.36364 9.78202e-14 0)
(3.36364 2.09893e-13 0)
(3.36364 2.09713e-13 0)
(3.36364 1.40491e-13 0)
(3.36364 1.40511e-13 0)
(3.36364 1.31876e-13 0)
(3.36364 4.42443e-14 0)
(3.36364 -4.43743e-15 0)
(3.36364 -5.48894e-14 0)
(3.36364 9.37162e-15 0)
(3.36364 1.26755e-14 0)
(3.36364 -1.93633e-14 0)
(3.36364 -2.95718e-15 0)
(3.36364 -2.73281e-14 0)
(3.36364 -1.60328e-14 0)
(3.36364 3.25423e-14 0)
(3.36364 6.12439e-14 0)
(3.36364 -1.01451e-14 0)
(3.36364 -8.65483e-14 0)
(3.36364 -1.21641e-13 0)
(3.36364 -1.21691e-13 0)
(3.36364 -8.15507e-14 0)
(3.36364 -8.01938e-14 0)
(3.36364 -6.47612e-14 0)
(3.36364 -5.37559e-14 0)
(3.36364 -1.35123e-14 0)
(3.36364 4.4381e-14 0)
(3.36364 1.48279e-13 0)
(3.36364 1.5181e-13 0)
(3.36364 1.71703e-13 0)
(3.36364 1.83755e-13 0)
(3.36364 2.55621e-13 0)
(3.36364 2.39285e-13 0)
(3.36364 1.91363e-13 0)
(3.36364 1.77871e-13 0)
(3.36364 1.7256e-13 0)
(3.36364 2.19808e-13 0)
(3.36364 1.72276e-13 0)
(3.36364 1.61548e-13 0)
(3.36364 1.27939e-13 0)
(3.36364 1.14516e-13 0)
(3.36364 9.10257e-14 0)
(3.36364 9.50064e-14 0)
(3.36364 3.36825e-14 0)
(3.36364 7.40595e-14 0)
(3.36364 8.34211e-14 0)
(3.36364 1.66362e-14 0)
(3.36364 3.2709e-14 0)
(3.36364 6.97773e-14 0)
(3.36364 -1.42558e-14 0)
(3.36364 -8.60815e-15 0)
(3.36364 6.47345e-14 0)
(3.36364 1.09622e-13 0)
(3.36364 6.73416e-14 0)
(3.36364 3.98369e-14 0)
(3.36364 3.86933e-14 0)
(3.36364 6.80117e-15 0)
(3.36364 -6.93786e-14 0)
(3.36364 -2.48743e-14 0)
(3.36364 -1.67362e-14 0)
(3.36364 -1.76197e-14 0)
(3.36364 -4.92752e-14 0)
(3.36364 -6.98354e-14 0)
(3.36364 -8.28376e-14 0)
(3.36364 -5.74232e-14 0)
(3.36364 3.38292e-14 0)
(3.36364 3.69831e-14 0)
(3.36364 4.87351e-14 0)
(3.36364 8.18608e-14 0)
(3.36364 9.36395e-14 0)
(3.36364 5.70098e-14 0)
(3.36364 6.2044e-14 0)
(3.36364 6.88719e-14 0)
(3.36364 1.74797e-13 0)
(3.36364 2.15204e-13 0)
(3.36364 2.81232e-13 0)
(3.36364 3.43086e-13 0)
(3.36364 3.23496e-13 0)
(3.36364 2.95568e-13 0)
(3.36364 2.09803e-13 0)
(3.36364 8.18708e-14 0)
(3.36364 6.25441e-15 0)
(3.36364 -6.04971e-14 0)
(3.36364 -1.01951e-13 0)
(3.36364 -5.75266e-14 0)
(3.36364 -5.85334e-14 0)
(3.36364 -4.54012e-14 0)
(3.36364 -2.18838e-14 0)
(3.36364 -4.33007e-14 0)
(3.36364 -1.39024e-15 0)
(3.36364 3.04619e-14 0)
(3.36364 7.53297e-14 0)
(3.36364 5.53762e-14 0)
(3.36364 -9.60166e-16 0)
(3.36364 1.11553e-14 0)
(3.36364 1.60928e-14 0)
(3.36364 -9.44963e-14 0)
(3.36364 -1.22785e-13 0)
(3.36364 -4.96552e-14 0)
(3.36364 -2.94451e-14 0)
(3.36364 -8.43246e-14 0)
(3.36364 -1.11573e-13 0)
(3.36364 -8.52714e-14 0)
(3.36364 -4.04537e-14 0)
(3.36364 9.4683e-16 0)
(3.36364 1.37624e-14 0)
(3.36364 -1.14253e-14 0)
(3.36364 3.19388e-15 0)
(3.36364 6.51212e-14 0)
(3.36364 6.74683e-14 0)
(3.36364 4.27974e-14 0)
(3.36364 4.14705e-14 0)
(3.36364 1.03988e-13 0)
(3.36364 1.66799e-13 0)
(3.36364 2.76844e-13 0)
(3.36364 3.12987e-13 0)
(3.36364 2.64889e-13 0)
(3.36364 2.60298e-13 0)
(3.36364 2.56318e-13 0)
(3.36364 3.12434e-13 0)
(3.36364 3.26563e-13 0)
(3.36364 2.6999e-13 0)
(3.36364 1.84042e-13 0)
(3.36364 1.54033e-13 0)
(3.36364 -1.96367e-14 0)
(3.36364 -8.79118e-14 0)
(3.36364 -7.58764e-14 0)
(3.36364 -6.92453e-15 0)
(3.36364 3.92716e-14 0)
(3.36364 3.06253e-14 0)
(3.36364 5.48095e-14 0)
(3.36364 4.86084e-14 0)
(3.36364 3.05686e-14 0)
(3.36364 -1.11519e-14 0)
(3.36364 -1.67362e-15 0)
(3.36364 1.7453e-14 0)
(3.36364 2.79815e-14 0)
(3.36364 -1.07852e-14 0)
(3.36364 -8.62582e-14 0)
(3.36364 -8.55414e-14 0)
(3.36364 -5.54696e-14 0)
(3.36364 -3.12921e-14 0)
(3.36364 -2.11003e-14 0)
(3.36364 -3.844e-15 0)
(3.36364 -2.22172e-14 0)
(3.36364 -5.32925e-14 0)
(3.36364 -9.08824e-14 0)
(3.36364 -9.11824e-14 0)
(3.36364 -1.5551e-13 0)
(3.36364 -1.47219e-13 0)
(3.36364 -1.01388e-13 0)
(3.36364 -2.04535e-14 0)
(3.36364 3.11154e-14 0)
(3.36364 6.71916e-14 0)
(3.36364 6.77717e-14 0)
(3.36364 7.33527e-14 0)
(3.36364 6.12572e-14 0)
(3.36364 1.40841e-13 0)
(3.36364 1.67902e-13 0)
(3.36364 1.61305e-13 0)
(3.36364 1.1683e-13 0)
(3.36364 8.14241e-14 0)
(3.36364 5.49562e-14 0)
(3.36364 7.84702e-14 0)
(3.36364 1.08412e-13 0)
(3.36364 6.47979e-14 0)
(3.36364 3.14921e-14 0)
(3.36364 1.20728e-13 0)
(3.36364 1.38371e-13 0)
(3.36364 2.43209e-14 0)
(3.36364 1.28022e-15 0)
(3.36364 -6.46212e-14 0)
(3.36364 -5.87235e-14 0)
(3.36364 -2.68546e-14 0)
(3.36364 -5.18089e-15 0)
(3.36364 8.24109e-14 0)
(3.36364 1.42308e-13 0)
(3.36364 1.36824e-13 0)
(3.36364 1.29766e-13 0)
(3.36364 1.18694e-13 0)
(3.36364 1.50543e-13 0)
(3.36364 1.7144e-13 0)
(3.36364 1.46055e-13 0)
(3.36364 -1.30923e-14 0)
(3.36364 -1.29746e-13 0)
(3.36364 -1.69876e-13 0)
(3.36364 -2.00881e-13 0)
(3.36364 -2.24709e-13 0)
(3.36364 -2.33217e-13 0)
(3.36364 -1.78004e-13 0)
(3.36364 -1.15333e-13 0)
(3.36364 -7.07422e-14 0)
(3.36364 -4.46277e-14 0)
(3.36364 -2.41975e-14 0)
(3.36364 1.59428e-14 0)
(3.36364 2.3124e-14 0)
(3.36364 5.22424e-14 0)
(3.36364 6.32643e-14 0)
(3.36364 9.56599e-14 0)
(3.36364 6.21207e-14 0)
(3.36364 -6.87419e-14 0)
(3.36364 -9.45663e-14 0)
(3.36364 -8.84853e-14 0)
(3.36364 -7.1139e-14 0)
(3.36364 1.27032e-13 0)
(3.36364 1.931e-13 0)
(3.36364 -5.55096e-15 0)
(3.36364 -1.29266e-13 0)
(3.36364 -1.17428e-13 0)
(3.36364 -1.03218e-14 0)
(3.36364 -3.99036e-14 0)
(3.36364 -5.89068e-14 0)
(3.36364 -9.97172e-15 0)
(3.36364 3.62929e-14 0)
(3.36364 3.02752e-14 0)
(3.36364 3.78399e-14 0)
(3.36364 1.24868e-13 0)
(3.36364 2.13187e-13 0)
(3.36364 2.03012e-13 0)
(3.36364 1.96797e-13 0)
(3.36364 1.56724e-13 0)
(3.36364 1.34163e-13 0)
(3.36364 1.03161e-13 0)
(3.36364 5.85768e-15 0)
(3.36364 -3.25523e-14 0)
(3.36364 -1.81101e-13 0)
(3.36364 -2.16477e-13 0)
(3.36364 -2.33537e-13 0)
(3.36364 -2.05652e-13 0)
(3.36364 -1.92497e-13 0)
(3.36364 -1.29759e-13 0)
(3.36364 -2.68846e-14 0)
(3.36364 1.37224e-14 0)
(3.36364 -2.26639e-14 0)
(3.36364 -4.52978e-14 0)
(3.36364 -7.12623e-14 0)
(3.36364 -6.3791e-14 0)
(3.36364 -6.73216e-14 0)
(3.36364 -7.55831e-14 0)
(3.36364 -4.98819e-14 0)
(3.36364 -9.54131e-14 0)
(3.36364 -1.00271e-13 0)
(3.36364 -5.5923e-14 0)
(3.36364 -1.34557e-14 0)
(3.36364 8.57381e-14 0)
(3.36364 1.43335e-13 0)
(3.36364 -9.39262e-14 0)
(3.36364 -3.11617e-13 0)
(3.36364 -2.87145e-13 0)
(3.36364 -7.64132e-15 0)
(3.36364 -3.91801e-14 0)
(3.36364 -1.26455e-14 0)
(3.36364 2.83582e-14 0)
(3.36364 5.65364e-14 0)
(3.36364 9.94438e-14 0)
(3.36364 7.56231e-14 0)
(3.36364 4.58513e-14 0)
(3.36364 7.95871e-14 0)
(3.36364 7.35694e-14 0)
(3.36364 5.04687e-14 0)
(3.36364 1.10686e-14 0)
(3.36364 -5.54762e-14 0)
(3.36364 -3.44093e-14 0)
(3.36364 -3.79632e-14 0)
(3.36364 -7.23358e-14 0)
(3.36364 -1.29006e-13 0)
(3.36364 -1.09859e-13 0)
(3.36364 -3.4846e-14 0)
(3.36364 -2.76714e-15 0)
(3.36364 -4.16872e-14 0)
(3.36364 -9.4333e-14 0)
(3.36364 -5.15256e-14 0)
(3.36364 -2.41575e-14 0)
(3.36364 -3.63196e-14 0)
(3.36364 -1.18794e-13 0)
(3.36364 -1.46772e-13 0)
(3.36364 -1.83165e-13 0)
(3.36364 -2.16937e-13 0)
(3.36364 -2.31597e-13 0)
(3.36364 -2.48913e-13 0)
(3.36364 -1.13706e-13 0)
(3.36364 -8.80485e-15 0)
(3.36364 5.99303e-14 0)
(3.36364 6.18507e-14 0)
(3.36364 4.2474e-15 0)
(3.36364 -1.10052e-13 0)
(3.36364 -2.41372e-13 0)
(3.36364 -2.56098e-13 0)
(3.36364 -2.5819e-13 0)
(3.36364 2.34974e-14 0)
(3.36364 1.80498e-14 0)
(3.36364 1.33123e-14 0)
(3.36364 4.36675e-14 0)
(3.36364 6.41311e-14 0)
(3.36364 8.67316e-14 0)
(3.36364 8.69283e-14 0)
(3.36364 -3.53394e-16 0)
(3.36364 -1.19441e-13 0)
(3.36364 -1.09022e-13 0)
(3.36364 -1.12093e-13 0)
(3.36364 -6.19374e-14 0)
(3.36364 -1.25288e-14 0)
(3.36364 -2.63379e-16 0)
(3.36364 8.02472e-15 0)
(3.36364 9.85837e-15 0)
(3.36364 2.13937e-14 0)
(3.36364 2.08269e-14 0)
(3.36364 8.81886e-14 0)
(3.36364 1.42661e-13 0)
(3.36364 1.60144e-13 0)
(3.36364 8.83486e-14 0)
(3.36364 3.6833e-14 0)
(3.36364 -1.37224e-14 0)
(3.36364 -3.23589e-14 0)
(3.36364 -6.04904e-14 0)
(3.36364 -9.92238e-14 0)
(3.36364 -1.42381e-13 0)
(3.36364 -1.78691e-13 0)
(3.36364 -1.42611e-13 0)
(3.36364 -1.26555e-13 0)
(3.36364 1.79931e-14 0)
(3.36364 1.71383e-13 0)
(3.36364 1.32216e-13 0)
(3.36364 5.83434e-16 0)
(3.36364 -7.43628e-14 0)
(3.36364 -2.12753e-13 0)
(3.36364 -3.79786e-13 0)
(3.36364 -3.87184e-13 0)
(3.36364 -4.2278e-13 0)
(3.36364 1.39024e-14 0)
(3.36364 2.64546e-14 0)
(3.36364 5.00653e-14 0)
(3.36364 1.03738e-13 0)
(3.36364 8.09907e-14 0)
(3.36364 -4.08604e-14 0)
(3.36364 -2.87183e-14 0)
(3.36364 -1.7583e-14 0)
(3.36364 -6.72449e-14 0)
(3.36364 -8.8692e-14 0)
(3.36364 -9.84903e-14 0)
(3.36364 2.43975e-14 0)
(3.36364 1.05388e-13 0)
(3.36364 8.17808e-14 0)
(3.36364 9.70801e-14 0)
(3.36364 7.47362e-14 0)
(3.36364 2.29106e-14 0)
(3.36364 -1.61828e-14 0)
(3.36364 -2.42075e-14 0)
(3.36364 -2.07269e-14 0)
(3.36364 3.82733e-15 0)
(3.36364 9.73501e-16 0)
(3.36364 -5.70799e-14 0)
(3.36364 -1.10056e-13 0)
(3.36364 -1.44458e-13 0)
(3.36364 -9.20626e-14 0)
(3.36364 -9.20026e-14 0)
(3.36364 -1.04321e-13 0)
(3.36364 -1.29419e-13 0)
(3.36364 -1.51686e-13 0)
(3.36364 -8.32244e-14 0)
(3.36364 -2.44842e-14 0)
(3.36364 -2.2914e-14 0)
(3.36364 -5.23157e-14 0)
(3.36364 -1.72683e-13 0)
(3.36364 -1.87929e-13 0)
(3.36364 -2.27233e-13 0)
(3.36364 -2.26692e-13 0)
(3.36364 -2.12937e-13 0)
(3.36364 -2.69231e-13 0)
(3.36364 -3.39325e-14 0)
(3.36364 -4.70281e-14 0)
(3.36364 -2.39041e-15 0)
(3.36364 -2.33074e-14 0)
(3.36364 -1.04278e-13 0)
(3.36364 -1.49126e-13 0)
(3.36364 -1.32426e-13 0)
(3.36364 -6.53379e-14 0)
(3.36364 -6.47112e-15 0)
(3.36364 -3.07453e-14 0)
(3.36364 -1.65362e-14 0)
(3.36364 -1.77397e-14 0)
(3.36364 -4.10571e-14 0)
(3.36364 -2.76014e-14 0)
(3.36364 -1.57694e-14 0)
(3.36364 7.70466e-15 0)
(3.36364 -1.79064e-14 0)
(3.36364 -7.46229e-14 0)
(3.36364 -8.17775e-14 0)
(3.36364 -8.4948e-14 0)
(3.36364 -2.3101e-13 0)
(3.36364 -2.96841e-13 0)
(3.36364 -3.06283e-13 0)
(3.36364 -2.96038e-13 0)
(3.36364 -3.10857e-13 0)
(3.36364 -2.44085e-13 0)
(3.36364 -2.38041e-13 0)
(3.36364 -2.55034e-13 0)
(3.36364 -2.66203e-13 0)
(3.36364 -2.47773e-13 0)
(3.36364 -1.5437e-13 0)
(3.36364 -1.45065e-13 0)
(3.36364 -1.75804e-13 0)
(3.36364 -2.48573e-13 0)
(3.36364 -3.19308e-13 0)
(3.36364 -3.02049e-13 0)
(3.36364 -3.25253e-13 0)
(3.36364 -2.6789e-13 0)
(3.36364 -2.44922e-13 0)
(3.36364 -1.89985e-13 0)
(3.36364 -1.38857e-14 0)
(3.36364 -3.65663e-14 0)
(3.36364 -5.66598e-14 0)
(3.36364 -9.03523e-14 0)
(3.36364 -1.08385e-13 0)
(3.36364 -8.41579e-14 0)
(3.36364 -5.26491e-14 0)
(3.36364 -3.71397e-14 0)
(3.36364 -1.04618e-14 0)
(3.36364 -2.95284e-14 0)
(3.36364 -7.3096e-14 0)
(3.36364 -7.73434e-14 0)
(3.36364 -1.07759e-13 0)
(3.36364 -1.29922e-13 0)
(3.36364 -1.42635e-13 0)
(3.36364 -1.00854e-13 0)
(3.36364 -1.24325e-13 0)
(3.36364 -1.33886e-13 0)
(3.36364 -1.17304e-13 0)
(3.36364 -1.56347e-13 0)
(3.36364 -2.56491e-13 0)
(3.36364 -3.12927e-13 0)
(3.36364 -3.1018e-13 0)
(3.36364 -2.6867e-13 0)
(3.36364 -1.756e-13 0)
(3.36364 -2.42242e-13 0)
(3.36364 -3.19352e-13 0)
(3.36364 -2.69026e-13 0)
(3.36364 -2.42999e-13 0)
(3.36364 -1.87719e-13 0)
(3.36364 -2.35157e-13 0)
(3.36364 -2.1449e-13 0)
(3.36364 -1.96274e-13 0)
(3.36364 -3.22412e-13 0)
(3.36364 -3.13141e-13 0)
(3.36364 -3.26276e-13 0)
(3.36364 -2.97718e-13 0)
(3.36364 -3.11507e-13 0)
(3.36364 -2.47243e-13 0)
(3.36364 -2.3673e-13 0)
(3.36364 2.03335e-14 0)
(3.36364 5.83334e-14 0)
(3.36364 2.24039e-14 0)
(3.36364 -7.01121e-15 0)
(3.36364 -5.19923e-14 0)
(3.36364 -6.98254e-14 0)
(3.36364 -8.96388e-14 0)
(3.36364 -1.02798e-13 0)
(3.36364 -1.02278e-13 0)
(3.36364 -5.53296e-14 0)
(3.36364 -5.34892e-14 0)
(3.36364 -6.82551e-14 0)
(3.36364 -9.14125e-14 0)
(3.36364 -1.1431e-13 0)
(3.36364 -1.5367e-13 0)
(3.36364 -1.96667e-13 0)
(3.36364 -1.62831e-13 0)
(3.36364 -1.43491e-13 0)
(3.36364 -1.50306e-13 0)
(3.36364 -1.83618e-13 0)
(3.36364 -1.47462e-13 0)
(3.36364 -1.47259e-13 0)
(3.36364 -1.60214e-13 0)
(3.36364 -1.27095e-13 0)
(3.36364 -8.59982e-14 0)
(3.36364 -2.07026e-13 0)
(3.36364 -1.59398e-13 0)
(3.36364 -1.05708e-13 0)
(3.36364 -8.20275e-14 0)
(3.36364 -1.28369e-13 0)