/*--------------------------------*- C++ -*----------------------------------*\
| =========                 |                                                 |
| \\      /  F ield         | OpenFOAM: The Open Source CFD Toolbox           |
|  \\    /   O peration     | Version:  2206                                  |
|   \\  /    A nd           | Website:  www.openfoam.com                      |
|    \\/     M anipulation  |                                                 |
\*---------------------------------------------------------------------------*/
FoamFile
{
    version     2.0;
    format      ascii;
    arch        "LSB;label=32;scalar=64";
    class       volScalarField;
    location    "0.2";
    object      T;
}
// * * * * * * * * * * * * * * * * * * * * * * * * * * * * * * * * * * * * * //

dimensions      [0 0 0 1 0 0 0];

internalField   nonuniform List<scalar> 
4800
(
1
1
1
1
1
1
1
1
1
1
1
1
1
1
1
1
1
1
1
1
1
1
1
1
1
1
1
1
1
1
1
1
1
1
1
1
1
1
1
1
1
1
1
1
1
1
1
1
1
1
1
1
1
1
1
1
1
1
1
1
1
1
1
1
1
1
1
1
1
1
1
1
1
1
1
1
1
1
1
1
1
1
1
1
1
1
1
1
1
1
1
1
1
1
1
1
1
1
1
1
1
1
1
1
1
1
1
1
1
1
1
1
1
1
1
1
1
1
1
1
1
1
1
1
1
1
1
1
1
1
1
1
1
1
1
1
1
1
1
1
1
1
1
1
1
1
1
1
1
1
1
1
1
1
1
1
1
1
1
1
1
1
1
1
1
1
1
1
1
1
1
1
1
1
1
1
1
1
1
1
1
1
1
1
1
1
1
1
1
1
1
1
1
1
1
1
1
1
1
1
1
1
1
1
1
1
1
1
1
1
1
1
1
1
1
1
1
1
1
1
1
1
1
1
1
1
1
1
1
1
1
1
1
1
1
1
1
1
1
1
1
1
1
1
1
1
1
1
1
1
1
1
1
1
1
1
1
1
1
1
1
1
1
1
1
1
1
1
1
1
1
1
1
1
1
1
1
1
1
1
1
1
1
1
1
1
1
1
1
1
1
1
1
1
1
1
1
1
1
1
1
1
1
1
1
1
1
1
1
1
1
1
1
1
1
1
1
1
1
1
1
1
1
1
1
1
1
1
1
1
1
1
1
1
1
1
1
1
1
1
1
1
1
1
1
1
1
1
1
1
1
1
1
1
1
1
1
1
1
1
1
1
1
1
1
1
1
1
1
1
1
1
1
1
1
1
1
1
1
1
1
1
1
1
1
1
1
1
1
1
1
1
1
1
1
1
1
1
1
1
1
1
1
1
1
1
1
1
1
1
1
1
1
1
1
1
1
1
1
1
1
1
1
1
1
1
1
1
1
1
1
1
1
1
1
1
1
1
1
1
1
1
1
1
1
1
1
1
1
1
1
1
1
1
1
1
1
1
1
1
1
1
1
1
1
1
1
1
1
1
1
1
1
1
1
1
1
1
1
1
1
1
1
1
1
1
1
1
1
1
1
1
1
1
1
1
1
1
1
1
1
1
1
1
1
1
1
1
1
1
1
1
1
1
1
1
1
1
1
1
1
1
1
1
1
1
1
1
1
1
1
1
1
1
1
1
1
1
1
1
1
1
1
1
1
1
1
1
1
1
1
1
1
1
1
1
1
1
1
1
1
1
1
1
1
1
1
1
1
1
1
1
1
1
1
1
1
1
1
1
1
1
1
1
1
1
1
1
1
1
1
1
1
1
1
1
1
1
1
1
1
1
1
1
1
1
1
1
1
1
1
1
1
1
1
1
1
1
1
1
1
1
1
1
1
1
1
1
1
1
1
1
1
1
1
1
1
1
1
1
1
1
1
1
1
1
1
1
1
1
1
1
1
1
1
1
1
1
1
1
1
1
1
1
1
1
1
1
1
1
1
1
1
1
1
1
1
1
1
1
1
1
1
1
1
1
1
1
1
1
1
1
1
1
1
1
1
1
1
1
1
1
1
1
1
1
1
1
1
1
1
1
1
1
1
1
1
1
1
1
1
1
1
1
1
1
1
1
1
1
1
1
1
1
1
1
1
1
1
1
1
1
1
1
1
1
1
1
1
1
1
1
1
1
1
1
1
1
1
1
1
1
1
1
1
1
1
1
1
1
1
1
1
1
1
1
1
1
1
1
1
1
1
1
1
1
1
1
1
1
1
1
1
1
1
1
1
1
1
1
1
1
1
1
1
1
1
1
1
1
1
1
1
1
1
1
1
1
1
1
1
1
1
1
1
1
1
1
1
1
1
1
1
1
1
1
1
1
1
1
1
1
1
1
1
1
1
1
1
1
1
1
1
1
1
1
1
1
1
1
1
1
1
1
1
1
1
1
1
1
1
1
1
1
1
1
1
1
1
1
1
1
1
1
1
1
1
1
1
1
1
1
1
1
1
1
1
1
1
1
1
1
1
1
1
1
1
1
1
1
1
1
1
1
1
1
1
1
1
1
1
1
1
1
1
1
1
1
1
1
1
1
1
1
1
1
1
1
1
1
1
1
1
1
1
1
1
1
1
1
1
1
1
1
1
1
1
1
1
1
1
1
1
1
1
1
1
1
1
1
1
1
1
1
1
1
1
1
1
1
1
1
1
1
1
1
1
1
1
1
1
1
1
1
1
1
1
1
1
1
1
1
1
1
1
1
1
1
1
1
1
1
1
1
1
1
1
1
1
1
1
1
1
1
1
1
1
1
1
1
1
1
1
1
1
1
1
1
1
1
1
1
1
1
1
1
1
1
1
1
1
1
1
1
1
1
1
1
1
1
1
1
1
1
1
1
1
1
1
1
1
1
1
1
1
1
1
1
1
1
1
1
1
1
1
1
1
1
1
1
1
1
1
1
1
1
1
1
1
1
1
1
1
1
1
1
1
1
1
1
1
1
1
1
1
1
1
1
1
1
1
1
1
1
1
1
1
1
1
1
1
1
1
1
1
1
1
1
1
1
1
1
1
1
1
1
1
1
1
1
1
1
1
1
1
1
1
1
1
1
1
1
1
1
1
1
1
1
1
1
1
1
1
1
1
1
1
1
1
1
1
1
1
1
1
1
1
1
1
1
1
1
1
1
1
1
1
1
1
1
1
1
1
1
1
1
1
1
1
1
1
1
1
1
1
1
1
1
1
1
1
1
1
1
1
1
1
1
1
1
1
1
1
1
1
1
1
1
1
1
1
1
1
1
1
1
1
1
1
1
1
1
1
1
1
1
1
1
1
1
1
1
1
1
1
1
1
1
1
1
1
1
1
1
1
1
1
1
1
1
1
1
1
1
1
1
1
1
1
1
1
1
1
1
1
1
1
1
1
1
1
1
1
1
1
1
1
1
1
1
1
1
1
1
1
1
1
1
1
1
1
1
1
1
1
1
1
1
1
1
1
1
1
1
1
1
1
1
1
1
1
1
1
1
1
1
1
1
1
1
1
1
1
1
1
1
1
1
1
1
1
1
1
1
1
1
1
1
1
1
1
1
1
1
1
1
1
1
1
1
1
1
1
1
1
1
1
1
1
1
1
1
1
1
1
1
1
1
1
1
1
1
1
1
1
1
1
1
1
1
1
1
1
1
1
1
1
1
1
1
1
1
1
1
1
1
1
1
1
1
1
1
1
1
1
1
1
1
1
1
1
1
1
1
1
1
1
1
1
1
1
1
1
1
1
1
1
1
1
1
1
1
1
1
1
1
1
1
1
1
1
1
1
1
1
1
1
1
1
1
1
1
1
1
1
1
1
1
1
1
1
1
1
1
1
1
1
1
1
1
1
1
1
1
1
1
1
1
1
1
1
1
1
1
1
1
1
1
1
1
1
1
1
1
1
1
1
1
1
1
1
1
1
1
1
1
1
1
1
1
1
1
1
1
1
1
1
1
1
1
1
1
1
1
1
1
1
1
1
1
1
1
1
1
1
1
1
1
1
1
1
1
1
1
1
1
1
1
1
1
1
1
1
1
1
1
1
1
1
1
1
1
1
1
1
1
1
1
1
1
1.07067
1.16398
1.25724
1.35693
1.46003
1.53912
1.60248
1.68323
1.79084
1.83697
1.85741
1.89094
1.92597
1.92928
1.91792
1.89213
1.86703
1.83323
1.78409
1.7363
1.7206
1.70975
1.68898
1.68562
1.68976
1.69963
1.7105
1.71544
1.71776
1.72252
1.73077
1.73745
1.73753
1.73607
1.73625
1.73826
1.74128
1.74179
1.74113
1.73897
1.73708
1.73791
1.74192
1.74682
1.74936
1.74926
1.74828
1.74655
1.7436
1.74078
1.7393
1.73869
1.73901
1.7416
1.74673
1.75087
1.75312
1.75386
1.75372
1.75251
1.75058
1.74811
1.7453
1.74336
1.74289
1.74331
1.74513
1.74741
1.74955
1.7517
1.75359
1.75555
1.7573
1.75811
1.75794
1.75707
1.75542
1.75271
1.74907
1.74753
1
0.999914
1.00113
1.00144
1.01438
1.07445
1.14537
1.19138
1.26687
1.38366
1.44458
1.49171
1.55642
1.60942
1.64341
1.67036
1.70179
1.72631
1.74639
1.76252
1.77786
1.78333
1.77828
1.76233
1.75337
1.74841
1.74607
1.73691
1.72741
1.72725
1.73068
1.73608
1.73734
1.7376
1.73946
1.74365
1.74731
1.74778
1.74737
1.74633
1.74436
1.74345
1.74421
1.74538
1.74721
1.74965
1.75089
1.75093
1.7506
1.7503
1.74983
1.7482
1.74687
1.74691
1.74753
1.74835
1.74949
1.75084
1.75223
1.75307
1.75315
1.75302
1.75288
1.7526
1.75234
1.75269
1.75293
1.75256
1.75152
1.75092
1.75097
1.75171
1.75331
1.75563
1.75715
1.75713
1.75651
1.75542
1.75436
1.75389
1
1
1
1
1
1
0.999999
1
0.999567
1.00375
1.01974
1.0551
1.13209
1.24993
1.37003
1.50695
1.64649
1.77058
1.80601
1.84878
1.85668
1.85312
1.84668
1.83225
1.81535
1.79951
1.77883
1.76067
1.74593
1.7455
1.7491
1.75159
1.75159
1.75241
1.75479
1.75951
1.76301
1.76359
1.76324
1.76218
1.76095
1.75936
1.7578
1.75686
1.75596
1.75603
1.75808
1.76169
1.76455
1.76532
1.7644
1.76254
1.76076
1.75944
1.75834
1.75731
1.75589
1.75446
1.75425
1.75565
1.7589
1.76179
1.76326
1.76385
1.76424
1.76444
1.76412
1.76261
1.75996
1.75722
1.75523
1.75465
1.75459
1.75499
1.7568
1.75885
1.76027
1.76132
1.7618
1.76165
1
1
1
1
1
1
1
1
1
1
1
1
1
0.999604
1.00266
1.03779
1.13028
1.33087
1.51497
1.63965
1.7418
1.77414
1.81117
1.81175
1.80529
1.80775
1.81789
1.81694
1.80677
1.79926
1.79587
1.79116
1.78407
1.77319
1.76758
1.76736
1.76966
1.77455
1.77863
1.78034
1.7806
1.78029
1.77896
1.7769
1.77307
1.77035
1.77019
1.77186
1.77525
1.77881
1.7809
1.78096
1.77938
1.77683
1.77394
1.77127
1.76814
1.76531
1.76403
1.76441
1.76558
1.76785
1.77095
1.77416
1.77654
1.77705
1.77636
1.77421
1.77021
1.76483
1.762
1.76155
1.76141
1.76185
1.76276
1.76351
1.76452
1.76555
1.76694
1.76814
1
1
1
1
1
1
1
1
1
1
1
1
1
1
1
1
0.999904
0.999689
1.02223
1.07838
1.22989
1.43131
1.57162
1.68749
1.74955
1.81984
1.85653
1.85327
1.85119
1.84626
1.83875
1.82805
1.80919
1.79067
1.78154
1.78126
1.78431
1.78921
1.79298
1.79506
1.79562
1.79491
1.79383
1.79241
1.78912
1.78659
1.7865
1.78701
1.78738
1.78798
1.78979
1.79125
1.79131
1.79057
1.789
1.78732
1.78586
1.78313
1.77987
1.77894
1.7789
1.77864
1.77867
1.77973
1.78192
1.78389
1.78434
1.78351
1.78052
1.77728
1.77587
1.77564
1.77535
1.77492
1.77462
1.77449
1.77429
1.77387
1.77345
1.77322
1
1
1
1
1
1
1
1
1
1
1
1
1
1
1
1
1
1
1
1
0.999584
1.00809
1.03846
1.1593
1.35154
1.50159
1.63511
1.70515
1.77568
1.81264
1.81354
1.81342
1.81475
1.80964
1.80282
1.80128
1.80264
1.80213
1.802
1.80117
1.79911
1.79628
1.79595
1.79601
1.7955
1.79532
1.79666
1.79752
1.79703
1.79535
1.79363
1.79322
1.79397
1.79692
1.80015
1.80088
1.80048
1.79947
1.7976
1.79449
1.79168
1.79011
1.78821
1.78719
1.78701
1.78706
1.78782
1.78867
1.78899
1.78921
1.7895
1.7901
1.79035
1.79015
1.78923
1.78766
1.78604
1.78428
1.78248
1.78074
1
1
1
1
1
1
1
1
1
1
1
1
1
1
1
1
1
1
1
1
1
1
1
0.999712
1.00239
1.01983
1.11719
1.2785
1.42609
1.57742
1.667
1.764
1.80607
1.81152
1.81782
1.8175
1.81482
1.80993
1.79846
1.78755
1.78657
1.78862
1.79265
1.79652
1.80146
1.80363
1.80337
1.80046
1.79704
1.794
1.79234
1.79137
1.79152
1.79429
1.79983
1.80461
1.80605
1.80604
1.80582
1.8055
1.80323
1.79797
1.79414
1.79173
1.7913
1.79146
1.79165
1.79191
1.79236
1.79326
1.79519
1.79813
1.79998
1.80018
1.79943
1.79752
1.79425
1.79137
1.78871
1.78637
1
1
1
1
1
1
1
1
1
1
1
1
1
1
1
1
1
1
1
1
1
1
1
1
1
1
0.999883
1.00058
1.00943
1.08584
1.22674
1.37172
1.52903
1.63178
1.74022
1.77742
1.78402
1.78735
1.7849
1.77931
1.7789
1.78547
1.79268
1.79776
1.80124
1.80124
1.80004
1.80067
1.80058
1.79605
1.79051
1.78913
1.78948
1.79163
1.79448
1.79764
1.80125
1.80393
1.80576
1.80631
1.80587
1.80458
1.80253
1.79993
1.79763
1.7966
1.79581
1.79473
1.79416
1.79434
1.79589
1.79878
1.8012
1.80182
1.80118
1.79978
1.79806
1.79599
1.79371
1.79196
1
1
1
1
1
1
1
1
1
1
1
1
1
1
1
1
1
1
1
1
1
1
1
1
1
1
1
1
1
0.999999
1.00003
1.00569
1.06926
1.19071
1.35265
1.50961
1.62445
1.73182
1.75878
1.77121
1.77929
1.78319
1.78673
1.78754
1.78801
1.7899
1.7908
1.79261
1.7939
1.7943
1.79436
1.79336
1.7917
1.78991
1.78889
1.78967
1.7911
1.79194
1.79385
1.7972
1.80002
1.80099
1.80138
1.80253
1.80359
1.80343
1.80167
1.79845
1.79567
1.79502
1.79582
1.79746
1.79814
1.7981
1.79761
1.79741
1.79789
1.79842
1.79842
1.79778
1
1
1
1
1
1
1
1
1
1
1
1
1
1
1
1
1
1
1
1
1
1
1
1
1
1
1
1
1
1
1
1
0.999999
0.999955
1.00585
1.06883
1.17377
1.32583
1.48535
1.61931
1.72584
1.74061
1.74541
1.7556
1.7547
1.75701
1.76398
1.77459
1.78392
1.78793
1.78891
1.78926
1.79052
1.79272
1.79169
1.78609
1.78202
1.7816
1.78279
1.78494
1.78664
1.78973
1.79381
1.79772
1.80091
1.80217
1.80201
1.80105
1.79909
1.79662
1.79487
1.79438
1.79429
1.79401
1.79397
1.79429
1.79524
1.79655
1.79863
1.79984
1
1
1
1
1
1
1
1
1
1
1
1
1
1
1
1
1
1
1
1
1
1
1
1
1
1
1
1
1
1
1
1
1
1
1
1
0.99998
1.00537
1.06402
1.17301
1.35176
1.50204
1.62726
1.7095
1.73543
1.73927
1.74403
1.75079
1.75939
1.77095
1.77913
1.78144
1.78405
1.78716
1.78857
1.78812
1.78531
1.77959
1.77641
1.77598
1.77748
1.77968
1.78176
1.78478
1.78968
1.79417
1.79602
1.7957
1.79497
1.79539
1.79652
1.79635
1.7947
1.79208
1.79059
1.79084
1.79254
1.79498
1.79641
1.79783
1
1
1
1
1
1
1
1
1
1
1
1
1
1
1
1
1
1
1
1
1
1
1
1
1
1
1
1
1
1
1
1
1
1
1
1
1
1
0.999954
1.00019
1.01082
1.08054
1.18694
1.35831
1.51625
1.67345
1.7215
1.72017
1.72728
1.73482
1.74337
1.75058
1.75934
1.77178
1.77914
1.77857
1.77676
1.77759
1.77977
1.78044
1.77918
1.77548
1.77357
1.77426
1.77768
1.77947
1.78093
1.783
1.7852
1.78829
1.7914
1.79296
1.79295
1.79266
1.79172
1.79089
1.79104
1.79197
1.79281
1.79407
1
1
1
1
1
1
1
1
1
1
1
1
1
1
1
1
1
1
1
1
1
1
1
1
1
1
1
1
1
1
1
1
1
1
1
1
1
1
1
0.999999
1
0.999988
1.00053
1.01643
1.08725
1.25104
1.42525
1.55947
1.66736
1.71777
1.72309
1.73376
1.73196
1.73776
1.75238
1.76464
1.768
1.77125
1.77467
1.77919
1.78106
1.77975
1.77694
1.77309
1.77073
1.77036
1.7706
1.77118
1.77241
1.77542
1.78144
1.7866
1.78786
1.78774
1.78757
1.78846
1.79021
1.79091
1.79065
1.79001
1
1
1
1
1
1
1
1
1
1
1
1
1
1
1
1
1
1
1
1
1
1
1
1
1
1
1
1
1
1
1
1
1
1
1
1
1
1
1
1
1
1
0.999999
1.00001
1.00003
1.00277
1.04329
1.12819
1.28888
1.46386
1.64593
1.72438
1.72386
1.72285
1.72958
1.73507
1.73834
1.74423
1.75436
1.76743
1.7726
1.77105
1.77014
1.77191
1.7743
1.77407
1.77071
1.76532
1.76418
1.76563
1.77105
1.77482
1.77669
1.77825
1.78068
1.78309
1.78552
1.7864
1.78657
1.78696
1
1
1
1
1
1
1
1
1
1
1
1
1
1
1
1
1
1
1
1
1
1
1
1
1
1
1
1
1
1
1
1
1
1
1
1
1
1
1
1
1
1
1
1
1
0.999999
1.00001
1.00028
1.00808
1.06672
1.22887
1.4308
1.56454
1.65959
1.71689
1.73191
1.73464
1.73074
1.73314
1.74305
1.75239
1.7568
1.76058
1.76626
1.77187
1.77431
1.77304
1.77021
1.76773
1.76677
1.76667
1.76741
1.76867
1.7695
1.77073
1.77348
1.77756
1.77958
1.77976
1.7804
1
1
1
1
1
1
1
1
1
1
1
1
1
1
1
1
1
1
1
1
1
1
1
1
1
1
1
1
1
1
1
1
1
1
1
1
1
1
1
1
1
1
1
1
1
1
1
1
0.999989
1.00006
1.00296
1.04567
1.14606
1.2957
1.47705
1.66016
1.74116
1.73938
1.74025
1.7421
1.74001
1.73844
1.7376
1.74393
1.7561
1.76532
1.76612
1.7637
1.76315
1.76527
1.76962
1.77095
1.76909
1.76544
1.76464
1.76559
1.76824
1.76997
1.77067
1.77262
1
1
1
1
1
1
1
1
1
1
1
1
1
1
1
1
1
1
1
1
1
1
1
1
1
1
1
1
1
1
1
1
1
1
1
1
1
1
1
1
1
1
1
1
1
1
1
1
0.999999
1
0.999996
1.00004
1.00073
1.01213
1.08295
1.27182
1.50074
1.64352
1.70829
1.73566
1.7483
1.74904
1.74094
1.73958
1.74311
1.74807
1.75105
1.75061
1.75311
1.76152
1.76903
1.77038
1.76861
1.76684
1.76577
1.76509
1.76478
1.76482
1.76487
1.76647
1
1
1
1
1
1
1
1
1
1
1
1
1
1
1
1
1
1
1
1
1
1
1
1
1
1
1
1
1
1
1
1
1
1
1
1
1
1
1
1
1
1
1
1
1
1
1
1
1
1
1
1
1
0.999988
1.00027
1.00892
1.10877
1.27478
1.42446
1.57197
1.71035
1.75713
1.75423
1.75708
1.76018
1.753
1.74545
1.74133
1.7413
1.74899
1.75932
1.76415
1.76317
1.7613
1.76146
1.76282
1.76517
1.76591
1.76518
1.76474
1
1
1
1
1
1
1
1
1
1
1
1
1
1
1
1
1
1
1
1
1
1
1
1
1
1
1
1
1
1
1
1
1
1
1
1
1
1
1
1
1
1
1
1
1
1
1
1
1
1
1
1
1
0.999999
1
0.999988
1.00069
1.00701
1.05987
1.19459
1.41672
1.60828
1.70841
1.74487
1.75485
1.75615
1.75673
1.75428
1.75179
1.7541
1.75572
1.75433
1.75279
1.74923
1.75002
1.75713
1.76377
1.76443
1.76389
1.76417
1
1
1
1
1
1
1
1
1
1
1
1
1
1
1
1
1
1
1
1
1
1
1
1
1
1
1
1
1
1
1
1
1
1
1
1
1
1
1
1
1
1
1
1
1
1
1
1
1
1
1
1
1
1
1
0.999999
1
0.999991
1.0002
1.00322
1.05367
1.26718
1.48953
1.58662
1.67493
1.74237
1.764
1.76461
1.76902
1.7756
1.77295
1.76294
1.75167
1.74574
1.74691
1.75274
1.75767
1.75907
1.75935
1.76074
1
1
1
1
1
1
1
1
1
1
1
1
1
1
1
1
1
1
1
1
1
1
1
1
1
1
1
1
1
1
1
1
1
1
1
1
1
1
1
1
1
1
1
1
1
1
1
1
1
1
1
1
1
1
1
1
1
0.999999
0.999999
0.999994
1.00036
1.01022
1.08761
1.26171
1.4383
1.62106
1.69188
1.72753
1.75815
1.76692
1.76703
1.76234
1.75686
1.75643
1.75698
1.75804
1.75882
1.75743
1.7557
1.75516
1
1
1
1
1
1
1
1
1
1
1
1
1
1
1
1
1
1
1
1
1
1
1
1
1
1
1
1
1
1
1
1
1
1
1
1
1
1
1
1
1
1
1
1
1
1
1
1
1
1
1
1
1
1
1
1
1
1
1
0.999999
1
0.999994
1.00069
1.01052
1.06706
1.27878
1.55391
1.66578
1.70142
1.72726
1.74976
1.7508
1.75198
1.75922
1.76708
1.76913
1.76975
1.76785
1.76218
1.75739
1
1
1
1
1
1
1
1
1
1
1
1
1
1
1
1
1
1
1
1
1
1
1
1
1
1
1
1
1
1
1
1
1
1
1
1
1
1
1
1
1
1
1
1
1
1
1
1
1
1
1
1
1
1
1
1
1
1
1
1
1
0.999999
1
0.999996
1.00061
1.01532
1.14455
1.40997
1.58242
1.68576
1.71988
1.72985
1.73703
1.74126
1.74804
1.7576
1.76423
1.76552
1.76336
1.76353
1
1
1
1
1
1
1
1
1
1
1
1
1
1
1
1
1
1
1
1
1
1
1
1
1
1
1
1
1
1
1
1
1
1
1
1
1
1
1
1
1
1
1
1
1
1
1
1
1
1
1
1
1
1
1
1
1
1
1
1
1
1
1
1
0.999998
1.00003
1.00338
1.06156
1.1934
1.41346
1.61585
1.7463
1.75916
1.74567
1.73736
1.73837
1.74503
1.75193
1.75894
1.76729
1
1
1
1
1
1
1
1
1
1
1
1
1
1
1
1
1
1
1
1
1
1
1
1
1
1
1
1
1
1
1
1
1
1
1
1
1
1
1
1
1
1
1
1
1
1
1
1
1
1
1
1
1
1
1
1
1
1
1
1
1
1
1
1
1
1
0.999997
1.00041
1.00591
1.06881
1.26794
1.57204
1.71705
1.74877
1.75779
1.75599
1.74539
1.74353
1.74845
1.76066
1
1
1
1
1
1
1
1
1
1
1
1
1
1
1
1
1
1
1
1
1
1
1
1
1
1
1
1
1
1
1
1
1
1
1
1
1
1
1
1
1
1
1
1
1
1
1
1
1
1
1
1
1
1
1
1
1
1
1
1
1
1
1
1
1
1
0.999999
1
0.999999
1.00069
1.0223
1.17671
1.45192
1.64739
1.74194
1.75004
1.75482
1.75517
1.75635
1.76185
1
1
1
1
1
1
1
1
1
1
1
1
1
1
1
1
1
1
1
1
1
1
1
1
1
1
1
1
1
1
1
1
1
1
1
1
1
1
1
1
1
1
1
1
1
1
1
1
1
1
1
1
1
1
1
1
1
1
1
1
1
1
1
1
1
1
1
1
1
0.999999
1.00014
1.00523
1.10726
1.34379
1.53591
1.68401
1.74112
1.75957
1.76788
1.76839
1
1
1
1
1
1
1
1
1
1
1
1
1
1
1
1
1
1
1
1
1
1
1
1
1
1
1
1
1
1
1
1
1
1
1
1
1
1
1
1
1
1
1
1
1
1
1
1
1
1
1
1
1
1
1
1
1
1
1
1
1
1
1
1
1
1
1
1
1
1
0.999999
1.00001
1.00281
1.03334
1.19163
1.44658
1.68477
1.72797
1.72818
1.74509
1
1
1
1
1
1
1
1
1
1
1
1
1
1
1
1
1
1
1
1
1
1
1
1
1
1
1
1
1
1
1
1
1
1
1
1
1
1
1
1
1
1
1
1
1
1
1
1
1
1
1
1
1
1
1
1
1
1
1
1
1
1
1
1
1
1
1
1
1
1
1
1
1
1.00019
1.00958
1.08726
1.37156
1.64333
1.72047
1.74213
1
1
1
1
1
1
1
1
1
1
1
1
1
1
1
1
1
1
1
1
1
1
1
1
1
1
1
1
1
1
1
1
1
1
1
1
1
1
1
1
1
1
1
1
1
1
1
1
1
1
1
1
1
1
1
1
1
1
1
1
1
1
1
1
1
1
1
1
1
1
1
1
1
1
1.00003
1.00225
1.04957
1.33832
1.59657
1.71042
1
1
1
1
1
1
1
1
1
1
1
1
1
1
1
1
1
1
1
1
1
1
1
1
1
1
1
1
1
1
1
1
1
1
1
1
1
1
1
1
1
1
1
1
1
1
1
1
1
1
1
1
1
1
1
1
1
1
1
1
1
1
1
1
1
1
1
1
1
1
1
1
1
1
1
1.00001
1.00102
1.04825
1.22426
1.59147
1
1
1
1
1
1
1
1
1
1
1
1
1
1
1
1
1
1
1
1
1
1
1
1
1
1
1
1
1
1
1
1
1
1
1
1
1
1
1
1
1
1
1
1
1
1
1
1
1
1
1
1
1
1
1
1
1
1
1
1
1
1
1
1
1
1
1
1
1
1
1
1
1
1
1
1
1
1.00089
1.0128
1.33814
1
1
1
1
1
1
1
1
1
1
1
1
1
1
1
1
1
1
1
1
1
1
1
1
1
1
1
1
1
1
1
1
1
1
1
1
1
1
1
1
1
1
1
1
1
1
1
1
1
1
1
1
1
1
1
1
1
1
1
1
1
1
1
1
1
1
1
1
1
1
1
1
1
1
1
1
1
1
1.00016
1.07417
1
1
1
1
1
1
1
1
1
1
1
1
1
1
1
1
1
1
1
1
1
1
1
1
1
1
1
1
1
1
1
1
1
1
1
1
1
1
1
1
1
1
1
1
1
1
1
1
1
1
1
1
1
1
1
1
1
1
1
1
1
1
1
1
1
1
1
1
1
1
1
1
1
1
1
1
1
1
1
1.00654
1
1
1
1
1
1
1
1
1
1
1
1
1
1
1
1
1
1
1
1
1
1
1
1
1
1
1
1
1
1
1
1
1
1
1
1
1
1
1
1
1
1
1
1
1
1
1
1
1
1
1
1
1
1
1
1
1
1
1
1
1
1
1
1
1
1
1
1
1
1
1
1
1
1
1
1
1
1
1
1.00034
1
1
1
1
1
1
1
1
1
1
1
1
1
1
1
1
1
1
1
1
1
1
1
1
1
1
1
1
1
1
1
1
1
1
1
1
1
1
1
1
1
1
1
1
1
1
1
1
1
1
1
1
1
1
1
1
1
1
1
1
1
1
1
1
1
1
1
1
1
1
1
1
1
1
1
1
1
1
1
1.00001
1
1
1
1
1
1
1
1
1
1
1
1
1
1
1
1
1
1
1
1
1
1
1
1
1
1
1
1
1
1
1
1
1
1
1
1
1
1
1
1
1
1
1
1
1
1
1
1
1
1
1
1
1
1
1
1
1
1
1
1
1
1
1
1
1
1
1
1
1
1
1
1
1
1
1
1
1
1
1
1
1
1
1
1
1
1
1
1
1
1
1
1
1
1
1
1
1
1
1
1
1
1
1
1
1
1
1
1
1
1
1
1
1
1
1
1
1
1
1
1
1
1
1
1
1
1
1
1
1
1
1
1
1
1
1
1
1
1
1
1
1
1
1
1
1
1
1
1
1
1
1
1
1
1
1
1
1
1
1
1
1
1
1
1
1
1
1
1
1
1
1
1
1
1
1
1
1
1
1
1
1
1
1
1
1
1
1
1
1
1
1
1
1
1
1
1
1
1
1
1
1
1
1
1
1
1
1
1
1
1
1
1
1
1
1
1
1
1
1
1
1
1
1
1
1
1
1
1
1
1
1
1
1
1
1
1
1
1
1
1
1
1
1
1
1
1
1
1
1
1
1
1
1
1
1
1
1
1
1
1
1
1
1
1
1
1
1
1
1
1
1
1
1
1
1
1
1
1
1
1
1
1
1
1
1
1
1
1
1
1
1
1
1
1
1
1
1
1
1
1
1
1
1
1
1
1
1
1
1
1
1
1
1
1
1
1
1
1
1
1
)
;

boundaryField
{
    inlet
    {
        type            fixedValue;
        value           uniform 1;
    }
    outlet
    {
        type            zeroGradient;
    }
    bottom
    {
        type            symmetryPlane;
    }
    top
    {
        type            symmetryPlane;
    }
    obstacle
    {
        type            zeroGradient;
    }
    defaultFaces
    {
        type            empty;
    }
}


// ************************************************************************* //
