/*--------------------------------*- C++ -*----------------------------------*\
| =========                 |                                                 |
| \\      /  F ield         | OpenFOAM: The Open Source CFD Toolbox           |
|  \\    /   O peration     | Version:  2206                                  |
|   \\  /    A nd           | Website:  www.openfoam.com                      |
|    \\/     M anipulation  |                                                 |
\*---------------------------------------------------------------------------*/
FoamFile
{
    version     2.0;
    format      ascii;
    arch        "LSB;label=32;scalar=64";
    class       volVectorField;
    location    "0.1";
    object      U;
}
// * * * * * * * * * * * * * * * * * * * * * * * * * * * * * * * * * * * * * //

dimensions      [0 1 -1 0 0 0 0];

internalField   nonuniform List<vector> 
75
(
(4.25253 9.78377e-15 0)
(4.25253 9.79127e-15 0)
(4.25253 1.46238e-14 0)
(4.25253 1.45083e-14 0)
(4.25253 1.28335e-14 0)
(4.25253 3.73815e-16 0)
(4.25253 9.82336e-15 0)
(4.25253 8.79819e-15 0)
(4.25253 8.3231e-15 0)
(4.25253 -6.34056e-16 0)
(4.25253 -5.72057e-15 0)
(4.25253 -2.37499e-15 0)
(4.25253 -3.3535e-15 0)
(4.25253 -5.74808e-15 0)
(4.25253 4.458e-15 0)
(4.25253 9.53415e-15 0)
(4.25253 1.456e-14 0)
(4.25253 1.89162e-14 0)
(4.25253 2.32869e-14 0)
(4.25253 -1.05963e-13 0)
(4.25253 1.28064e-15 0)
(4.25253 1.55635e-14 0)
(4.25253 2.10015e-14 0)
(4.25253 3.50273e-14 0)
(4.25253 -1.20985e-13 0)
(4.21124 0.00741961 0)
(4.14866 0.0769413 0)
(4.09108 0.120581 0)
(4.01335 0.269772 0)
(3.96273 0.340355 0)
(3.87665 0.506851 0)
(3.82998 0.588121 0)
(3.78024 0.764231 0)
(3.72243 0.883036 0)
(3.69795 0.985952 0)
(4.25195 0.000416113 0)
(4.24532 0.0124287 0)
(4.22729 0.0497781 0)
(4.18032 0.149767 0)
(4.10877 0.322808 0)
(4.0104 0.560035 0)
(3.87291 0.869938 0)
(3.75737 1.16028 0)
(3.61077 1.3176 0)
(3.63555 1.22813 0)
(4.25253 3.28023e-07 0)
(4.25255 2.54748e-05 0)
(4.25271 -0.00049988 0)
(4.25193 0.0013316 0)
(4.25084 0.00353316 0)
(4.23985 0.034226 0)
(4.21807 0.102759 0)
(4.12343 0.37638 0)
(4.11707 0.659447 0)
(3.85659 1.02237 0)
(4.25253 -8.85973e-09 0)
(4.25253 -3.7023e-06 0)
(4.25254 -3.40957e-05 0)
(4.25253 -3.33335e-05 0)
(4.25254 1.88507e-06 0)
(4.25243 0.000143093 0)
(4.25244 0.000613693 0)
(4.24273 0.0299215 0)
(4.23455 0.202135 0)
(4.00718 0.857427 0)
(4.25253 -2.23691e-09 0)
(4.25253 -5.82652e-08 0)
(4.25253 -1.40252e-06 0)
(4.25253 -7.12721e-06 0)
(4.25253 -5.50924e-06 0)
(4.25252 7.15045e-06 0)
(4.25253 3.82033e-06 0)
(4.25251 -1.05267e-05 0)
(4.24655 0.0099227 0)
(4.08126 0.292241 0)
)
;

boundaryField
{
    inlet
    {
        type            fixedValue;
        value           uniform (4.25253 0 0);
    }
    outlet
    {
        type            zeroGradient;
    }
    bottom
    {
        type            symmetryPlane;
    }
    top
    {
        type            symmetryPlane;
    }
    obstacle
    {
        type            slip;
    }
    defaultFaces
    {
        type            empty;
    }
}


// ************************************************************************* //
