/*--------------------------------*- C++ -*----------------------------------*\
| =========                 |                                                 |
| \\      /  F ield         | OpenFOAM: The Open Source CFD Toolbox           |
|  \\    /   O peration     | Version:  2206                                  |
|   \\  /    A nd           | Website:  www.openfoam.com                      |
|    \\/     M anipulation  |                                                 |
\*---------------------------------------------------------------------------*/
FoamFile
{
    version     2.0;
    format      ascii;
    arch        "LSB;label=32;scalar=64";
    class       volScalarField;
    location    "0.06";
    object      p;
}
// * * * * * * * * * * * * * * * * * * * * * * * * * * * * * * * * * * * * * //

dimensions      [1 -1 -2 0 0 0 0];

internalField   nonuniform List<scalar> 
4800
(
1
1
1
1
1
1
1
1
1
1
1
1
1
1
1
1
1
1
1
1
1
1
1
1
1
1
1
1
1
1
1
1
1
1
1
1
1
1
1
1
1
1
1
1
1
1
1
1
1
1
1
1
1
1
1
1
1
1
1
1
1
1
1
1
1
1
1
1
1
1
1
1
1
1
1
1
1
1
1
1
1
1
1
1
1
1
1
1
1
1
1
1
1
1
1
1
1
1
1
1
1
1
1
1
1
1
1
1
1
1
1
1
1
1
1
1
1
1
1
1
1
1
1
1
1
1
1
1
1
1
1
1
1
1
1
1
1
1
1
1
1
1
1
1
1
1
1
1
1
1
1
1
1
1
1
1
1
1
1
1
1
1
1
1
1
1
1
1
1
1
1
1
1
1
1
1
1
1
1
1
1
1
1
1
1
1
1
1
1
1
1
1
1
1
1
1
1
1
1
1
1
1
1
1
1
1
1
1
1
1
1
1
1
1
1
1
1
1
1
1
1
1
1
1
1
1
1
1
1
1
1
1
1
1
1
1
1
1
1
1
1
1
1
1
1
1
1
1
1
1
1
1
1
1
1
1
1
1
1
1
1
1
1
1
1
1
1
1
1
1
1
1
1
1
1
1
1
1
1
1
1
1
1
1
1
1
1
1
1
1
1
1
1
1
1
1
1
1
1
1
1
1
1
1
1
1
1
1
1
1
1
1
1
1
1
1
1
1
1
1
1
1
1
1
1
1
1
1
1
1
1
1
1
1
1
1
1
1
1
1
1
1
1
1
1
1
1
1
1
1
1
1
1
1
1
1
1
1
1
1
1
1
1
1
1
1
1
1
1
1
1
1
1
1
1
1
1
1
1
1
1
1
1
1
1
1
1
1
1
1
1
1
1
1
1
1
1
1
1
1
1
1
1
1
1
1
1
1
1
1
1
1
1
1
1
1
1
1
1
1
1
1
1
1
1
1
1
1
1
1
1
1
1
1
1
1
1
1
1
1
1
1
1
1
1
1
1
1
1
1
1
1
1
1
1
1
1
1
1
1
1
1
1
1
1
1
1
1
1
1
1
1
1
1
1
1
1
1
1
1
1
1
1
1
1
1
1
1
1
1
1
1
1
1
1
1
1
1
1
1
1
1
1
1
1
1
1
1
1
1
1
1
1
1
1
1
1
1
1
1
1
1
1
1
1
1
1
1
1
1
1
1
1
1
1
1
1
1
1
1
1
1
1
1
1
1
1
1
1
1
1
1
1
1
1
1
1
1
1
1
1
1
1
1
1
1
1
1
1
1
1
1
1
1
1
1
1
1
1
1
1
1
1
1
1
1
1
1
1
1
1
1
1
1
1
1
1
1
1
1
1
1
1
1
1
1
1
1
1
1
1
1
1
1
1
1
1
1
1
1
1
1
1
1
1
1
1
1
1
1
1
1
1
1
1
1
1
1
1
1
1
1
1
1
1
1
1
1
1
1
1
1
1
1
1
1
1
1
1
1
1
1
1
1
1
1
1
1
1
1
1
1
1
1
1
1
1
1
1
1
1
1
1
1
1
1
1
1
1
1
1
1
1
1
1
1
1
1
1
1
1
1
1
1
1
1
1
1
1
1
1
1
1
1
1
1
1
1
1
1
1
1
1
1
1
1
1
1
1
1
1
1
1
1
1
1
1
1
1
1
1
1
1
1
1
1
1
1
1
1
1
1
1
1
1
1
1
1
1
1
1
1
1
1
1
1
1
1
1
1
1
1
1
1
1
1
1
1
1
1
1
1
1
1
1
1
1
1
1
1
1
1
1
1
1
1
1
1
1
1
1
1
1
1
1
1
1
1
1
1
1
1
1
1
1
1
1
1
1
1
1
1
1
1
1
1
1
1
1
1
1
1
1
1
1
1
1
1
1
1
1
1
1
1
1
1
1
1
1
1
1
1
1
1
1
1
1
1
1
1
1
1
1
1
1
1
1
1
1
1
1
1
1
1
1
1
1
1
1
1
1
1
1
1
1
1
1
1
1
1
1
1
1
1
1
1
1
1
1
1
1
1
1
1
1
1
1
1
1
1
1
1
1
1
1
1
1
1
1
1
1
1
1
1
1
1
1
1
1
1
1
1
1
1
1
1
1
1
1
1
1
1
1
1
1
1
1
1
1
1
1
1
1
1
1
1
1
1
1
1
1
1
1
1
1
1
1
1
1
1
1
1
1
1
1
1
1
1
1
1
1
1
1
1
1
1
1
1
1
1
1
1
1
1
1
1
1
1
1
1
1
1
1
1
1
1
1
1
1
1
1
1
1
1
1
1
1
1
1
1
1
1
1
1
1
1
1
1
1
1
1
1
1
1
1
1
1
1
1
1
1
1
1
1
1
1
1
1
1
1
1
1
1
1
1
1
1
1
1
1
1
1
1
1
1
1
1
1
1
1
1
1
1
1
1
1
1
1
1
1
1
1
1
1
1
1
1
1
1
1
1
1
1
1
1
1
1
1
1
1
1
1
1
1
1
1
1
1
1
1
1
1
1
1
1
1
1
1
1
1
1
1
1
1
1
1
1
1
1
1
1
1
1
1
1
1
1
1
1
1
1
1
1
1
1
1
1
1
1
1
1
1
1
1
1
1
1
1
1
1
1
1
1
1
1
1
1
1
1
1
1
1
1
1
1
1
1
1
1
1
1
1
1
1
1
1
1
1
1
1
1
1
1
1
1
1
1
1
1
1
1
1
1
1
1
1
1
1
1
1
1
1
1
1
1
1
1
1
1
1
1
1
1
1
1
1
1
1
1
1
1
1
1
1
1
1
1
1
1
1
1
1
1
1
1
1
1
1
1
1
1
1
1
1
1
1
1
1
1
1
1
1
1
1
1
1
1
1
1
1
1
1
1
1
1
1
1
1
1
1
1
1
1
1
1
1
1
1
1
1
1
1
1
1
1
1
1
1
1
1
1
1
1
1
1
1
1
1
1
1
1
1
1
1
1
1
1
1
1
1
1
1
1
1
1
1
1
1
1
1
1
1
1
1
1
1
1
1
1
1
1
1
1
1
1
1
1
1
1
1
1
1
1
1
1
1
1
1
1
1
1
1
1
1
1
1
1
1
1
1
1
1
1
1
1
1
1
1
1
1
1
1
1
1
1
1
1
1
1
1
1
1
1
1
1
1
1
1
1
1
1
1
1
1
1
1
1
1
1
1
1
1
1
1
1
1
1
1
1
1
1
1
1
1
1
1
1
1
1
1
1
1
1
1
1
1
1
1
1
1
1
1
1
1
1
1
1
1
1
1
1
1
1
1
1
1
1
1
1
1
1
1
1
1
1
1
1
1
1
1
1
1
1
1
1
1
1
1
1
1
1
1
1
1
1
1
1
1
1
1
1
1
1
1
1
1
1
1
1
1
1
1
1
1
1
1
1
1
1
1
1
1
1
1
1
1
1
1
1
1
1
1
1
1
1
1
1
1
1
1
1
1
1
1
1
1
1
1
1
1
1
1
1
1
1
1
1
1
1
1
1
1
1
1
1
1
1
1
1
1
1
1
1
1
1
1
1
1
1
1
1
1
1
1
1
1
1
1
1
1
1
1
1
1
1
1
1
1
1
1
1
1
1
1
1
1
1
1
1
1
1.27274
1.70177
2.1919
2.66967
3.15874
3.58285
3.83901
4.0816
4.055
3.91503
3.63573
3.32809
3.10885
3.03424
2.99197
2.95546
2.96315
2.98616
3.01356
3.03719
3.05597
3.06007
3.06167
3.06504
3.07083
3.07655
3.07588
3.06767
3.04819
3.01808
2.98183
2.94843
2.92149
2.89747
2.87767
2.86612
2.85806
2.85248
2.84702
2.84205
2.83921
2.83717
2.8357
2.83517
2.83417
2.83409
2.83298
2.82957
2.82749
2.82864
2.83167
2.83378
2.83551
2.83847
2.84282
2.84692
2.84997
2.85239
2.85533
2.85946
2.8639
2.87067
2.88175
2.89856
2.92342
2.95311
2.97176
2.97514
2.97508
2.97487
2.97448
2.97372
2.97327
2.97322
2.97324
2.9733
2.97349
2.97372
2.97391
2.97431
1.00762
1.03379
1.11238
1.26089
1.47816
1.79704
2.13981
2.53735
2.84443
3.00943
3.16784
3.24257
3.23165
3.20596
3.19679
3.14046
3.08619
3.05424
3.02343
3.0193
3.02675
3.04015
3.05468
3.06825
3.0702
3.068
3.06098
3.04928
3.02906
2.99869
2.96541
2.93777
2.91407
2.89231
2.87717
2.86273
2.85117
2.84582
2.84187
2.83812
2.83517
2.83206
2.82828
2.82528
2.82325
2.82214
2.82173
2.82035
2.81991
2.823
2.82652
2.82918
2.83282
2.83665
2.84022
2.84401
2.84753
2.85069
2.85399
2.85799
2.8643
2.87277
2.8852
2.90421
2.93109
2.95923
2.97308
2.97482
2.97476
2.97454
2.9742
2.97383
2.9737
2.97371
2.97373
2.9738
2.97398
2.97415
2.97426
2.97446
1
1.00003
1.0005
1.00307
1.01343
1.04969
1.15444
1.36601
1.80342
2.3975
2.97072
3.2479
3.42769
3.42271
3.3861
3.30853
3.16302
3.05469
3.00994
3.0112
3.02034
3.04718
3.06463
3.0652
3.06096
3.05324
3.04389
3.03378
3.0164
2.98917
2.95963
2.93456
2.91344
2.89157
2.87527
2.86492
2.85659
2.85094
2.84762
2.8432
2.83872
2.83376
2.82819
2.82415
2.82375
2.82484
2.82667
2.829
2.82812
2.82763
2.82815
2.82961
2.832
2.83624
2.84171
2.84679
2.85087
2.85434
2.8578
2.86167
2.86665
2.874
2.8858
2.90548
2.9347
2.96314
2.97417
2.97514
2.97516
2.97507
2.9747
2.97421
2.97406
2.9741
2.97413
2.97419
2.97427
2.9743
2.97426
2.97421
1
1
0.999999
1
1
1.00008
1.00097
1.00589
1.04235
1.1923
1.59846
2.16189
2.77282
3.106
3.18094
3.17593
3.18522
3.17848
3.15246
3.1238
3.09113
3.07694
3.06732
3.05061
3.03913
3.03598
3.03497
3.02885
3.01194
2.98249
2.9502
2.92171
2.90154
2.88493
2.87275
2.8655
2.8586
2.85289
2.84816
2.84278
2.8373
2.83137
2.82417
2.81865
2.81901
2.82177
2.82422
2.82967
2.82947
2.82558
2.82537
2.82795
2.83135
2.83524
2.83959
2.84422
2.8484
2.85215
2.85612
2.86091
2.86742
2.87652
2.8897
2.91055
2.94055
2.96655
2.97467
2.97524
2.97537
2.97526
2.97489
2.97444
2.97429
2.97418
2.97408
2.97405
2.97404
2.97405
2.97398
2.97406
1
1
1
1
1
1
1
0.999998
1.00005
1.00135
1.01752
1.12761
1.40765
1.94757
2.51218
3.00894
3.1974
3.26882
3.26869
3.24162
3.18215
3.08639
3.06433
3.05461
3.04607
3.0416
3.03782
3.02935
3.00919
2.97782
2.94476
2.91317
2.88962
2.87628
2.86619
2.85856
2.85386
2.85009
2.84308
2.83695
2.83255
2.82896
2.82475
2.82293
2.82324
2.82388
2.82474
2.82726
2.83054
2.82655
2.82572
2.82868
2.8324
2.83571
2.83851
2.84233
2.84719
2.8516
2.85588
2.86084
2.8676
2.87718
2.89172
2.91465
2.94528
2.96853
2.97477
2.97533
2.97559
2.9758
2.97551
2.97511
2.97512
2.97499
2.97471
2.97437
2.9741
2.97392
2.97381
2.97387
1
1
1
1
1
1
1
1
1
1
1
1.00065
1.00727
1.07058
1.28719
1.74443
2.32771
2.74889
3.10169
3.1123
3.10784
3.13129
3.13375
3.12518
3.10259
3.08231
3.06145
3.03469
3.00281
2.96893
2.93811
2.9152
2.89018
2.87491
2.8632
2.85224
2.8452
2.84153
2.83665
2.83095
2.83018
2.82781
2.82366
2.82284
2.82204
2.82189
2.82229
2.82393
2.8274
2.82791
2.8274
2.82999
2.8334
2.83653
2.83901
2.84217
2.8476
2.85336
2.85849
2.86364
2.87041
2.88052
2.89626
2.92074
2.95113
2.97031
2.97397
2.97418
2.9742
2.9741
2.97364
2.97329
2.97351
2.97388
2.97426
2.97461
2.97491
2.97505
2.97518
2.97499
1
1
1
1
1
1
1
1
1
1
1
1
0.999996
1.00022
1.00416
1.03545
1.20807
1.57212
2.1479
2.61309
2.9634
3.15824
3.1766
3.16959
3.13925
3.09491
3.05458
3.02749
3.00207
2.98032
2.95535
2.91306
2.8881
2.87216
2.85882
2.84815
2.83845
2.83047
2.8301
2.83416
2.8325
2.82614
2.82006
2.81604
2.81436
2.81651
2.81877
2.81951
2.82302
2.82752
2.82887
2.83085
2.83396
2.83662
2.83892
2.84185
2.84738
2.85445
2.86142
2.86794
2.87481
2.88519
2.90229
2.9293
2.95928
2.97297
2.97437
2.9744
2.97418
2.97341
2.97248
2.97199
2.97212
2.97258
2.97322
2.97384
2.97439
2.9748
2.97514
2.97539
1
1
1
1
1
1
1
1
1
1
1
1
1
1
0.999997
1.00006
1.00232
1.02291
1.12116
1.47246
1.9696
2.53973
2.82055
3.00255
3.02119
3.03334
3.05533
3.04899
3.02728
2.99986
2.9593
2.90944
2.87677
2.84961
2.83817
2.83401
2.83391
2.83343
2.83516
2.83264
2.82698
2.82025
2.81353
2.80674
2.80469
2.80707
2.80998
2.81173
2.81551
2.82234
2.82539
2.82659
2.82962
2.83279
2.83584
2.84054
2.84645
2.85323
2.85997
2.8671
2.87644
2.88862
2.90766
2.93691
2.96482
2.97419
2.97485
2.97485
2.97466
2.97394
2.97287
2.97237
2.97245
2.97276
2.97317
2.97353
2.97382
2.97398
2.97415
2.97453
1
1
1
1
1
1
1
1
1
1
1
1
1
1
1
1
0.999998
1.00002
1.00088
1.01675
1.08823
1.35678
1.84959
2.446
2.79383
3.00412
3.07263
3.0589
3.029
2.98377
2.92683
2.88337
2.85756
2.85084
2.84627
2.841
2.83406
2.8278
2.82034
2.816
2.8118
2.80786
2.80406
2.80079
2.80148
2.80833
2.8145
2.8166
2.81952
2.82575
2.83145
2.831
2.8331
2.83531
2.83699
2.83937
2.84341
2.84949
2.85651
2.86445
2.8745
2.8893
2.91269
2.94402
2.96845
2.9755
2.97598
2.97596
2.97569
2.97503
2.97419
2.9736
2.97334
2.97325
2.97327
2.97323
2.97322
2.97329
2.97335
2.97359
1
1
1
1
1
1
1
1
1
1
1
1
1
1
1
1
1
1
0.999999
1.00002
1.00052
1.00998
1.07161
1.2862
1.77597
2.31544
2.8297
2.89083
2.92139
2.91973
2.8984
2.87798
2.86867
2.8649
2.85137
2.834
2.81918
2.80947
2.79997
2.79355
2.79098
2.79084
2.79883
2.80679
2.80975
2.80941
2.8114
2.81273
2.81461
2.81997
2.82755
2.8289
2.83065
2.83327
2.83478
2.8363
2.83927
2.84527
2.853
2.86194
2.87368
2.89257
2.92081
2.95268
2.97279
2.97732
2.97731
2.97671
2.97594
2.97489
2.97406
2.97353
2.97317
2.9729
2.97262
2.97247
2.97244
2.97252
2.97265
2.97314
1
1
1
1
1
1
1
1
1
1
1
1
1
1
1
1
1
1
1
1
0.999999
1.00001
1.00039
1.00672
1.06091
1.25385
1.69125
2.22524
2.66869
2.88339
2.89219
2.88702
2.87487
2.8544
2.82619
2.8063
2.79942
2.79452
2.79402
2.79829
2.8012
2.80253
2.80401
2.80608
2.80313
2.80022
2.79993
2.80129
2.80481
2.81142
2.8196
2.82592
2.82848
2.83248
2.83741
2.84093
2.84459
2.85061
2.85845
2.86896
2.88354
2.90406
2.93146
2.95914
2.9737
2.97597
2.97575
2.97513
2.97418
2.97333
2.97279
2.97265
2.9728
2.97309
2.97321
2.97323
2.97321
2.9733
2.97337
2.9735
1
1
1
1
1
1
1
1
1
1
1
1
1
1
1
1
1
1
1
1
1
1
1
1
1.00031
1.00586
1.04408
1.23483
1.59971
2.12699
2.48335
2.70849
2.80188
2.78974
2.75431
2.7672
2.79739
2.80986
2.81727
2.81964
2.81188
2.79843
2.79293
2.79155
2.78605
2.78399
2.78403
2.78706
2.7938
2.80332
2.81085
2.82213
2.82756
2.83111
2.83528
2.83968
2.84647
2.85539
2.86561
2.87856
2.89376
2.91323
2.93913
2.96346
2.97259
2.97322
2.97326
2.9733
2.97287
2.9728
2.9731
2.97355
2.97417
2.97476
2.97498
2.97491
2.97458
2.97422
2.9738
2.97327
1
1
1
1
1
1
1
1
1
1
1
1
1
1
1
1
1
1
1
1
1
1
1
1
1
1
1.00021
1.00497
1.03715
1.17974
1.51306
1.92261
2.28421
2.58119
2.69129
2.75125
2.79148
2.78795
2.79422
2.80077
2.78989
2.76383
2.76142
2.76391
2.7682
2.77451
2.78783
2.79698
2.80517
2.81311
2.81478
2.81802
2.82049
2.8214
2.82539
2.83139
2.84007
2.85065
2.86381
2.87877
2.8969
2.92073
2.94919
2.96993
2.97504
2.97546
2.97558
2.97543
2.97456
2.97374
2.97345
2.97339
2.97355
2.97373
2.97377
2.97375
2.97368
2.97363
2.97345
2.97319
1
1
1
1
1
1
1
1
1
1
1
1
1
1
1
1
1
1
1
1
1
1
1
1
1
1
1
1
1.00017
1.00322
1.02664
1.12342
1.34921
1.68728
2.07258
2.35522
2.56562
2.6215
2.66967
2.72231
2.71567
2.73385
2.75254
2.77542
2.79603
2.80232
2.80409
2.80484
2.80528
2.80535
2.80239
2.80541
2.80829
2.81057
2.81504
2.82096
2.83142
2.84546
2.86036
2.87785
2.90139
2.93166
2.96127
2.9761
2.97799
2.97766
2.97691
2.97584
2.97452
2.97298
2.97216
2.97178
2.97168
2.97174
2.97182
2.97216
2.97265
2.97314
2.97362
2.974
1
1
1
1
1
1
1
1
1
1
1
1
1
1
1
1
1
1
1
1
1
1
1
1
1
1
1
1
1
1
1.0001
1.0016
1.01304
1.06116
1.20744
1.44449
1.77084
2.11716
2.34989
2.56045
2.66639
2.74045
2.76451
2.77179
2.79007
2.78941
2.77979
2.77501
2.77287
2.77672
2.78025
2.79177
2.80243
2.81343
2.82433
2.8308
2.84252
2.85707
2.87145
2.89124
2.91675
2.9435
2.96649
2.9737
2.97452
2.97413
2.97304
2.97173
2.97072
2.97038
2.9706
2.9713
2.9723
2.97281
2.97322
2.97358
2.9738
2.97401
2.97398
2.97382
1
1
1
1
1
1
1
1
1
1
1
1
1
1
1
1
1
1
1
1
1
1
1
1
1
1
1
1
1
1
1
0.999999
1.00002
1.00048
1.00448
1.02337
1.08494
1.2408
1.49186
1.78993
2.10718
2.37499
2.53354
2.60014
2.69047
2.69065
2.69532
2.72602
2.74734
2.77497
2.79566
2.81686
2.8308
2.83388
2.84383
2.85026
2.86018
2.8731
2.88565
2.90337
2.92794
2.95218
2.96274
2.96682
2.96718
2.96733
2.96724
2.96725
2.96815
2.96997
2.97147
2.97293
2.97415
2.97465
2.9746
2.97431
2.97397
2.97359
2.97306
2.97266
1
1
1
1
1
1
1
1
1
1
1
1
1
1
1
1
1
1
1
1
1
1
1
1
1
1
1
1
1
1
1
1
1
1
1
1.00008
1.00089
1.00651
1.03014
1.09546
1.25636
1.4905
1.81575
2.09606
2.35299
2.53835
2.65166
2.73622
2.7541
2.78646
2.79919
2.80636
2.82188
2.81863
2.83006
2.83547
2.84708
2.86509
2.88315
2.9044
2.92874
2.95048
2.96288
2.968
2.96947
2.97066
2.97217
2.97231
2.97189
2.97215
2.97221
2.97182
2.9718
2.97227
2.97219
2.97205
2.9719
2.97201
2.97245
2.97293
1
1
1
1
1
1
1
1
1
1
1
1
1
1
1
1
1
1
1
1
1
1
1
1
1
1
1
1
1
1
1
1
1
1
1
1
1
1.00001
1.00013
1.00116
1.00746
1.03131
1.10091
1.25808
1.48038
1.79364
2.07736
2.34338
2.49759
2.61684
2.68325
2.70036
2.74446
2.74911
2.78094
2.81237
2.83818
2.86775
2.89498
2.92781
2.95594
2.97334
2.98192
2.98278
2.98103
2.9771
2.97544
2.97297
2.96996
2.968
2.96693
2.96638
2.96674
2.96738
2.96817
2.96923
2.97031
2.97126
2.97261
2.97404
1
1
1
1
1
1
1
1
1
1
1
1
1
1
1
1
1
1
1
1
1
1
1
1
1
1
1
1
1
1
1
1
1
1
1
1
1
1
1
1
1.00001
1.00015
1.0013
1.00776
1.03074
1.09861
1.2429
1.45944
1.76288
2.03168
2.31243
2.48131
2.63323
2.72565
2.77723
2.82416
2.85091
2.88537
2.91126
2.94036
2.96383
2.97023
2.97019
2.97152
2.96673
2.95624
2.95823
2.95926
2.95841
2.95996
2.96208
2.96465
2.96707
2.9689
2.97073
2.97251
2.97271
2.97237
2.97202
2.9724
1
1
1
1
1
1
1
1
1
1
1
1
1
1
1
1
1
1
1
1
1
1
1
1
1
1
1
1
1
1
1
1
1
1
1
1
1
1
1
1
1
1
1
1.00001
1.00015
1.00128
1.00701
1.02759
1.08836
1.21542
1.41783
1.69871
1.96441
2.25207
2.43411
2.61485
2.6931
2.78004
2.82648
2.86431
2.89648
2.90808
2.90898
2.92997
2.93765
2.94127
2.95005
2.95631
2.96532
2.97367
2.97321
2.97466
2.9749
2.97381
2.97224
2.97129
2.97043
2.96956
2.96837
2.96891
1
1
1
1
1
1
1
1
1
1
1
1
1
1
1
1
1
1
1
1
1
1
1
1
1
1
1
1
1
1
1
1
1
1
1
1
1
1
1
1
1
1
1
1
1
1
1.00001
1.00013
1.00104
1.00557
1.02233
1.07131
1.17353
1.34921
1.5897
1.85429
2.13164
2.34286
2.54458
2.67847
2.77897
2.87357
2.90817
2.93124
2.9524
2.9576
2.9701
2.97276
2.97275
2.97266
2.96688
2.96481
2.96486
2.96208
2.96099
2.96164
2.96277
2.96492
2.96635
2.96849
1
1
1
1
1
1
1
1
1
1
1
1
1
1
1
1
1
1
1
1
1
1
1
1
1
1
1
1
1
1
1
1
1
1
1
1
1
1
1
1
1
1
1
1
1
1
1
1
1
1.00001
1.00009
1.00069
1.00362
1.01459
1.0458
1.11541
1.24244
1.42317
1.64964
1.8949
2.13668
2.34609
2.55924
2.66745
2.79318
2.83793
2.8796
2.90474
2.90861
2.92252
2.91981
2.93035
2.9426
2.95115
2.95609
2.96104
2.96892
2.97101
2.97283
2.97252
1
1
1
1
1
1
1
1
1
1
1
1
1
1
1
1
1
1
1
1
1
1
1
1
1
1
1
1
1
1
1
1
1
1
1
1
1
1
1
1
1
1
1
1
1
1
1
1
1
1
1
1
1
1.00004
1.0003
1.00157
1.00641
1.0202
1.05321
1.11814
1.22796
1.39047
1.60705
1.86621
2.12207
2.38452
2.55727
2.72697
2.80446
2.88994
2.922
2.94263
2.95651
2.96735
2.97148
2.97353
2.96985
2.96642
2.96649
2.96478
1
1
1
1
1
1
1
1
1
1
1
1
1
1
1
1
1
1
1
1
1
1
1
1
1
1
1
1
1
1
1
1
1
1
1
1
1
1
1
1
1
1
1
1
1
1
1
1
1
1
1
1
1
1
1
1
1.00001
1.00006
1.00035
1.0015
1.00535
1.01639
1.04447
1.10714
1.22499
1.41471
1.66563
1.94387
2.24087
2.46282
2.67469
2.77575
2.86262
2.89235
2.91499
2.93552
2.93081
2.93768
2.94584
2.95229
1
1
1
1
1
1
1
1
1
1
1
1
1
1
1
1
1
1
1
1
1
1
1
1
1
1
1
1
1
1
1
1
1
1
1
1
1
1
1
1
1
1
1
1
1
1
1
1
1
1
1
1
1
1
1
1
1
1
1
1
1.00001
1.00004
1.00026
1.0013
1.00543
1.01924
1.05693
1.14172
1.30156
1.53449
1.83132
2.14603
2.41524
2.64123
2.77045
2.86683
2.9163
2.94533
2.96262
2.96277
1
1
1
1
1
1
1
1
1
1
1
1
1
1
1
1
1
1
1
1
1
1
1
1
1
1
1
1
1
1
1
1
1
1
1
1
1
1
1
1
1
1
1
1
1
1
1
1
1
1
1
1
1
1
1
1
1
1
1
1
1
1
1
1
1.00001
1.00006
1.00042
1.00231
1.01018
1.03525
1.10223
1.24299
1.47555
1.78429
2.12119
2.41407
2.65317
2.79534
2.87533
2.916
1
1
1
1
1
1
1
1
1
1
1
1
1
1
1
1
1
1
1
1
1
1
1
1
1
1
1
1
1
1
1
1
1
1
1
1
1
1
1
1
1
1
1
1
1
1
1
1
1
1
1
1
1
1
1
1
1
1
1
1
1
1
1
1
1
1
1
1
1.00002
1.00019
1.0013
1.00683
1.02786
1.09012
1.23339
1.47853
1.81786
2.18139
2.47454
2.75283
1
1
1
1
1
1
1
1
1
1
1
1
1
1
1
1
1
1
1
1
1
1
1
1
1
1
1
1
1
1
1
1
1
1
1
1
1
1
1
1
1
1
1
1
1
1
1
1
1
1
1
1
1
1
1
1
1
1
1
1
1
1
1
1
1
1
1
1
1
1
1
1.00001
1.00013
1.00107
1.00655
1.02939
1.10242
1.27587
1.54346
2.11952
1
1
1
1
1
1
1
1
1
1
1
1
1
1
1
1
1
1
1
1
1
1
1
1
1
1
1
1
1
1
1
1
1
1
1
1
1
1
1
1
1
1
1
1
1
1
1
1
1
1
1
1
1
1
1
1
1
1
1
1
1
1
1
1
1
1
1
1
1
1
1
1
1
1
1.00001
1.00015
1.00142
1.00959
1.03944
1.28311
1
1
1
1
1
1
1
1
1
1
1
1
1
1
1
1
1
1
1
1
1
1
1
1
1
1
1
1
1
1
1
1
1
1
1
1
1
1
1
1
1
1
1
1
1
1
1
1
1
1
1
1
1
1
1
1
1
1
1
1
1
1
1
1
1
1
1
1
1
1
1
1
1
1
1
1
1
1.00002
1.00026
1.01439
1
1
1
1
1
1
1
1
1
1
1
1
1
1
1
1
1
1
1
1
1
1
1
1
1
1
1
1
1
1
1
1
1
1
1
1
1
1
1
1
1
1
1
1
1
1
1
1
1
1
1
1
1
1
1
1
1
1
1
1
1
1
1
1
1
1
1
1
1
1
1
1
1
1
1
1
1
1
1
1.00009
1
1
1
1
1
1
1
1
1
1
1
1
1
1
1
1
1
1
1
1
1
1
1
1
1
1
1
1
1
1
1
1
1
1
1
1
1
1
1
1
1
1
1
1
1
1
1
1
1
1
1
1
1
1
1
1
1
1
1
1
1
1
1
1
1
1
1
1
1
1
1
1
1
1
1
1
1
1
1
1
1
1
1
1
1
1
1
1
1
1
1
1
1
1
1
1
1
1
1
1
1
1
1
1
1
1
1
1
1
1
1
1
1
1
1
1
1
1
1
1
1
1
1
1
1
1
1
1
1
1
1
1
1
1
1
1
1
1
1
1
1
1
1
1
1
1
1
1
1
1
1
1
1
1
1
1
1
1
1
1
1
1
1
1
1
1
1
1
1
1
1
1
1
1
1
1
1
1
1
1
1
1
1
1
1
1
1
1
1
1
1
1
1
1
1
1
1
1
1
1
1
1
1
1
1
1
1
1
1
1
1
1
1
1
1
1
1
1
1
1
1
1
1
1
1
1
1
1
1
1
1
1
1
1
1
1
1
1
1
1
1
1
1
1
1
1
1
1
1
1
1
1
1
1
1
1
1
1
1
1
1
1
1
1
1
1
1
1
1
1
1
1
1
1
1
1
1
1
1
1
1
1
1
1
1
1
1
1
1
1
1
1
1
1
1
1
1
1
1
1
1
1
1
1
1
1
1
1
1
1
1
1
1
1
1
1
1
1
1
1
1
1
1
1
1
1
1
1
1
1
1
1
1
1
1
1
1
1
1
1
1
1
1
1
1
1
1
1
1
1
1
1
1
1
1
1
1
1
1
1
1
1
1
1
1
1
1
1
1
1
1
1
1
1
1
1
1
1
1
1
1
1
1
1
1
1
1
1
1
1
1
1
1
1
1
1
1
1
1
1
1
1
1
1
1
1
1
1
1
1
1
1
1
1
1
1
1
1
1
1
1
1
1
1
1
1
1
1
1
1
1
1
1
1
1
1
1
1
1
1
1
1
1
1
1
1
1
1
1
1
1
1
1
1
1
1
1
1
1
1
1
1
1
1
1
1
1
1
1
1
1
1
1
1
1
1
1
1
1
1
1
1
1
1
1
1
1
1
1
1
1
1
1
1
1
1
1
1
1
1
1
1
1
1
1
1
1
1
1
1
1
1
1
1
1
1
1
1
1
1
1
1
1
1
1
1
1
1
1
1
1
1
1
1
1
1
1
1
1
1
1
1
1
1
1
1
1
1
1
1
1
1
1
1
1
1
1
1
1
1
1
1
1
1
1
1
1
1
1
1
1
1
1
1
1
1
1
1
1
1
1
1
1
1
1
1
1
1
1
1
1
1
1
1
1
1
1
1
1
1
1
1
1
1
1
1
1
1
1
1
1
1
1
1
1
1
1
1
1
1
1
1
1
1
1
1
1
1
1
1
1
1
1
1
1
1
1
1
1
1
1
1
1
1
1
1
1
1
1
1
1
1
1
1
1
1
1
1
1
1
1
1
1
1
1
1
1
1
1
1
1
1
1
1
1
1
1
1
1
1
1
1
1
1
1
1
1
1
1
1
1
1
1
1
1
1
1
1
1
1
1
1
1
1
1
1
1
1
1
1
1
1
1
1
1
1
1
1
1
1
)
;

boundaryField
{
    inlet
    {
        type            fixedValue;
        value           uniform 1;
    }
    outlet
    {
        type            zeroGradient;
    }
    bottom
    {
        type            symmetryPlane;
    }
    top
    {
        type            symmetryPlane;
    }
    obstacle
    {
        type            zeroGradient;
    }
    defaultFaces
    {
        type            empty;
    }
}


// ************************************************************************* //
