/*--------------------------------*- C++ -*----------------------------------*\
| =========                 |                                                 |
| \\      /  F ield         | OpenFOAM: The Open Source CFD Toolbox           |
|  \\    /   O peration     | Version:  2206                                  |
|   \\  /    A nd           | Website:  www.openfoam.com                      |
|    \\/     M anipulation  |                                                 |
\*---------------------------------------------------------------------------*/
FoamFile
{
    version     2.0;
    format      ascii;
    arch        "LSB;label=32;scalar=64";
    class       volScalarField;
    location    "0.14";
    object      p;
}
// * * * * * * * * * * * * * * * * * * * * * * * * * * * * * * * * * * * * * //

dimensions      [1 -1 -2 0 0 0 0];

internalField   nonuniform List<scalar> 
4800
(
1
1
1
1
1
1
1
1
1
1
1
1
1
1
1
1
1
1
1
1
1
1
1
1
1
1
1
1
1
1
1
1
1
1
1
1
1
1
1
1
1
1
1
1
1
1
1
1
1
1
1
1
1
1
1
1
1
1
1
1
1
1
1
1
1
1
1
1
1
1
1
1
1
1
1
1
1
1
1
1
1
1
1
1
1
1
1
1
1
1
1
1
1
1
1
1
1
1
1
1
1
1
1
1
1
1
1
1
1
1
1
1
1
1
1
1
1
1
1
1
1
1
1
1
1
1
1
1
1
1
1
1
1
1
1
1
1
1
1
1
1
1
1
1
1
1
1
1
1
1
1
1
1
1
1
1
1
1
1
1
1
1
1
1
1
1
1
1
1
1
1
1
1
1
1
1
1
1
1
1
1
1
1
1
1
1
1
1
1
1
1
1
1
1
1
1
1
1
1
1
1
1
1
1
1
1
1
1
1
1
1
1
1
1
1
1
1
1
1
1
1
1
1
1
1
1
1
1
1
1
1
1
1
1
1
1
1
1
1
1
1
1
1
1
1
1
1
1
1
1
1
1
1
1
1
1
1
1
1
1
1
1
1
1
1
1
1
1
1
1
1
1
1
1
1
1
1
1
1
1
1
1
1
1
1
1
1
1
1
1
1
1
1
1
1
1
1
1
1
1
1
1
1
1
1
1
1
1
1
1
1
1
1
1
1
1
1
1
1
1
1
1
1
1
1
1
1
1
1
1
1
1
1
1
1
1
1
1
1
1
1
1
1
1
1
1
1
1
1
1
1
1
1
1
1
1
1
1
1
1
1
1
1
1
1
1
1
1
1
1
1
1
1
1
1
1
1
1
1
1
1
1
1
1
1
1
1
1
1
1
1
1
1
1
1
1
1
1
1
1
1
1
1
1
1
1
1
1
1
1
1
1
1
1
1
1
1
1
1
1
1
1
1
1
1
1
1
1
1
1
1
1
1
1
1
1
1
1
1
1
1
1
1
1
1
1
1
1
1
1
1
1
1
1
1
1
1
1
1
1
1
1
1
1
1
1
1
1
1
1
1
1
1
1
1
1
1
1
1
1
1
1
1
1
1
1
1
1
1
1
1
1
1
1
1
1
1
1
1
1
1
1
1
1
1
1
1
1
1
1
1
1
1
1
1
1
1
1
1
1
1
1
1
1
1
1
1
1
1
1
1
1
1
1
1
1
1
1
1
1
1
1
1
1
1
1
1
1
1
1
1
1
1
1
1
1
1
1
1
1
1
1
1
1
1
1
1
1
1
1
1
1
1
1
1
1
1
1
1
1
1
1
1
1
1
1
1
1
1
1
1
1
1
1
1
1
1
1
1
1
1
1
1
1
1
1
1
1
1
1
1
1
1
1
1
1
1
1
1
1
1
1
1
1
1
1
1
1
1
1
1
1
1
1
1
1
1
1
1
1
1
1
1
1
1
1
1
1
1
1
1
1
1
1
1
1
1
1
1
1
1
1
1
1
1
1
1
1
1
1
1
1
1
1
1
1
1
1
1
1
1
1
1
1
1
1
1
1
1
1
1
1
1
1
1
1
1
1
1
1
1
1
1
1
1
1
1
1
1
1
1
1
1
1
1
1
1
1
1
1
1
1
1
1
1
1
1
1
1
1
1
1
1
1
1
1
1
1
1
1
1
1
1
1
1
1
1
1
1
1
1
1
1
1
1
1
1
1
1
1
1
1
1
1
1
1
1
1
1
1
1
1
1
1
1
1
1
1
1
1
1
1
1
1
1
1
1
1
1
1
1
1
1
1
1
1
1
1
1
1
1
1
1
1
1
1
1
1
1
1
1
1
1
1
1
1
1
1
1
1
1
1
1
1
1
1
1
1
1
1
1
1
1
1
1
1
1
1
1
1
1
1
1
1
1
1
1
1
1
1
1
1
1
1
1
1
1
1
1
1
1
1
1
1
1
1
1
1
1
1
1
1
1
1
1
1
1
1
1
1
1
1
1
1
1
1
1
1
1
1
1
1
1
1
1
1
1
1
1
1
1
1
1
1
1
1
1
1
1
1
1
1
1
1
1
1
1
1
1
1
1
1
1
1
1
1
1
1
1
1
1
1
1
1
1
1
1
1
1
1
1
1
1
1
1
1
1
1
1
1
1
1
1
1
1
1
1
1
1
1
1
1
1
1
1
1
1
1
1
1
1
1
1
1
1
1
1
1
1
1
1
1
1
1
1
1
1
1
1
1
1
1
1
1
1
1
1
1
1
1
1
1
1
1
1
1
1
1
1
1
1
1
1
1
1
1
1
1
1
1
1
1
1
1
1
1
1
1
1
1
1
1
1
1
1
1
1
1
1
1
1
1
1
1
1
1
1
1
1
1
1
1
1
1
1
1
1
1
1
1
1
1
1
1
1
1
1
1
1
1
1
1
1
1
1
1
1
1
1
1
1
1
1
1
1
1
1
1
1
1
1
1
1
1
1
1
1
1
1
1
1
1
1
1
1
1
1
1
1
1
1
1
1
1
1
1
1
1
1
1
1
1
1
1
1
1
1
1
1
1
1
1
1
1
1
1
1
1
1
1
1
1
1
1
1
1
1
1
1
1
1
1
1
1
1
1
1
1
1
1
1
1
1
1
1
1
1
1
1
1
1
1
1
1
1
1
1
1
1
1
1
1
1
1
1
1
1
1
1
1
1
1
1
1
1
1
1
1
1
1
1
1
1
1
1
1
1
1
1
1
1
1
1
1
1
1
1
1
1
1
1
1
1
1
1
1
1
1
1
1
1
1
1
1
1
1
1
1
1
1
1
1
1
1
1
1
1
1
1
1
1
1
1
1
1
1
1
1
1
1
1
1
1
1
1
1
1
1
1
1
1
1
1
1
1
1
1
1
1
1
1
1
1
1
1
1
1
1
1
1
1
1
1
1
1
1
1
1
1
1
1
1
1
1
1
1
1
1
1
1
1
1
1
1
1
1
1
1
1
1
1
1
1
1
1
1
1
1
1
1
1
1
1
1
1
1
1
1
1
1
1
1
1
1
1
1
1
1
1
1
1
1
1
1
1
1
1
1
1
1
1
1
1
1
1
1
1
1
1
1
1
1
1
1
1
1
1
1
1
1
1
1
1
1
1
1
1
1
1
1
1
1
1
1
1
1
1
1
1
1
1
1
1
1
1
1
1
1
1
1
1
1
1
1
1
1
1
1
1
1
1
1
1
1
1
1
1
1
1
1
1
1
1
1
1
1
1
1
1
1
1
1
1
1
1
1
1
1
1
1
1
1
1
1
1
1
1
1
1
1
1
1
1
1
1
1
1
1
1
1
1
1
1
1
1
1
1
1
1
1
1
1
1
1
1
1
1
1
1
1
1
1
1
1
1
1
1
1
1
1
1
1
1
1
1
1
1
1
1
1
1
1
1
1
1
1
1
1
1
1
1
1
1
1
1
1
1
1
1
1
1
1
1
1
1
1
1
1
1
1
1
1
1
1
1
1
1
1
1
1
1
1
1
1
1
1
1
1
1
1
1
1
1
1
1
1
1
1
1
1
1
1
1
1
1
1
1
1
1
1
1
1
1
1
1
1
1
1
1
1
1
1
1
1
1
1
1
1
1
1
1.26333
1.67906
2.21162
2.73092
3.24652
3.94983
4.6009
4.97173
5.33141
5.93478
6.30063
6.23915
6.11318
6.08524
5.9493
5.56754
5.09735
4.65338
4.36288
4.17349
4.11032
4.11073
4.12377
4.14284
4.19421
4.24831
4.29157
4.31411
4.31291
4.32549
4.35259
4.37716
4.39118
4.39506
4.39346
4.39974
4.41917
4.43643
4.44278
4.43901
4.42858
4.41721
4.40246
4.38352
4.37122
4.36813
4.36887
4.38075
4.41431
4.44857
4.46602
4.46842
4.46278
4.446
4.42626
4.40825
4.39683
4.39095
4.38737
4.3857
4.38785
4.39408
4.40359
4.41934
4.4355
4.4494
4.46416
4.47655
4.48094
4.47917
4.46795
4.44764
4.42926
4.42147
4.41817
4.41594
4.41611
4.42066
4.42065
4.41925
0.99999
0.999048
1.00295
1.06391
1.15104
1.24178
1.4774
1.83063
2.15832
2.52958
3.06898
3.53621
3.7912
4.23502
4.43864
4.4959
4.72366
4.73185
4.75554
4.70978
4.5775
4.51915
4.49034
4.42947
4.38307
4.32502
4.28397
4.27921
4.28796
4.29762
4.32296
4.35292
4.37496
4.37768
4.3713
4.36712
4.37656
4.39152
4.40924
4.42474
4.42528
4.42145
4.42105
4.42116
4.41694
4.40542
4.39307
4.39011
4.39201
4.40002
4.41194
4.41948
4.41957
4.42007
4.42115
4.42361
4.42921
4.43351
4.43346
4.43175
4.4282
4.42209
4.41706
4.4145
4.4146
4.41663
4.4229
4.43301
4.44392
4.44835
4.44714
4.44091
4.43549
4.43621
4.43879
4.44299
4.4465
4.44745
4.44543
4.43729
1
1
1
0.999999
1
1
0.999696
1.00044
1.01361
1.05322
1.16672
1.44911
1.84547
2.41142
3.22406
4.04156
4.72839
4.93771
5.01733
5.06114
5.01959
4.92231
4.79439
4.667
4.41947
4.29912
4.30106
4.2868
4.28627
4.29426
4.31676
4.36327
4.39405
4.39436
4.37792
4.35112
4.34614
4.3533
4.36544
4.38675
4.41696
4.43657
4.44403
4.44564
4.44263
4.43466
4.42343
4.41057
4.39907
4.39487
4.39079
4.38291
4.37808
4.38107
4.39688
4.42159
4.44296
4.45313
4.45722
4.45836
4.45702
4.45205
4.43976
4.42725
4.41637
4.41328
4.41247
4.41142
4.41147
4.41273
4.41537
4.42138
4.43022
4.44025
4.45119
4.46005
4.46363
4.46338
4.46086
4.45132
1
1
1
1
1
1
1
1
1
1
1
0.999403
1.00205
1.02469
1.18377
1.5667
2.20651
3.06082
3.68752
4.42484
4.58794
4.62958
4.62591
4.56453
4.56723
4.54984
4.5525
4.52719
4.45084
4.40212
4.38882
4.38047
4.37456
4.35133
4.33412
4.32281
4.32444
4.33475
4.34541
4.35871
4.38098
4.40862
4.4324
4.44711
4.45621
4.45795
4.44961
4.43363
4.41546
4.40053
4.3929
4.38431
4.3732
4.3668
4.37155
4.38782
4.41404
4.44208
4.46273
4.47349
4.47559
4.47031
4.45568
4.43393
4.42127
4.41631
4.41181
4.41092
4.41127
4.40999
4.40744
4.40824
4.41319
4.42219
4.43572
4.45258
4.46509
4.46919
4.46939
4.46094
1
1
1
1
1
1
1
1
1
1
1
1
1
0.999999
1
0.999475
1.01278
1.15995
1.46902
2.03331
2.82619
3.53438
4.34225
4.57995
4.75023
4.77618
4.73958
4.69232
4.59595
4.4814
4.35527
4.34702
4.36951
4.37164
4.35787
4.33993
4.33269
4.33469
4.33718
4.34927
4.3642
4.37592
4.38498
4.39402
4.40652
4.42162
4.43374
4.43875
4.43978
4.44
4.43698
4.42791
4.4077
4.38841
4.38607
4.3896
4.39594
4.4045
4.41536
4.42712
4.43743
4.44222
4.44073
4.43265
4.42863
4.42774
4.43186
4.4355
4.43503
4.43209
4.42635
4.4222
4.42258
4.42472
4.42862
4.43455
4.44025
4.44399
4.445
4.44231
1
1
1
1
1
1
1
1
1
1
1
1
1
1
1
1
0.999999
1
0.999426
1.0083
1.12878
1.39024
1.90578
2.66543
3.36936
4.14012
4.26736
4.40158
4.371
4.3175
4.37404
4.43625
4.47399
4.47879
4.45999
4.43167
4.40162
4.3841
4.37312
4.3532
4.34378
4.34808
4.35343
4.35797
4.36419
4.37231
4.38767
4.41365
4.44781
4.46689
4.46847
4.46655
4.4601
4.44085
4.41263
4.40435
4.39985
4.39569
4.39297
4.39224
4.39514
4.39961
4.40767
4.41982
4.43013
4.4389
4.45115
4.45916
4.4592
4.45636
4.45152
4.44554
4.44015
4.43754
4.43558
4.43314
4.42951
4.42562
4.42153
4.41843
1
1
1
1
1
1
1
1
1
1
1
1
1
1
1
1
1
1
1
0.999999
1
0.999569
1.00641
1.09978
1.31164
1.79266
2.53715
3.25674
4.01633
4.23768
4.4396
4.55839
4.53142
4.51277
4.49415
4.46471
4.41532
4.37509
4.3873
4.3913
4.38878
4.37297
4.34355
4.32571
4.32243
4.32954
4.34024
4.36291
4.40682
4.45252
4.47413
4.47849
4.47477
4.46266
4.44802
4.42367
4.40648
4.39957
4.3951
4.39282
4.39247
4.39217
4.39227
4.39652
4.40768
4.42228
4.44168
4.46173
4.46915
4.4683
4.46333
4.45425
4.44638
4.44037
4.43231
4.42486
4.41924
4.41572
4.4096
4.40792
1
1
1
1
1
1
1
1
1
1
1
1
1
1
1
1
1
1
1
1
1
1
0.999999
1
0.999671
1.0057
1.09483
1.27929
1.76494
2.51922
3.27296
3.95534
4.0659
4.21519
4.25981
4.26663
4.30335
4.37861
4.43689
4.46572
4.46794
4.45173
4.42862
4.39636
4.34808
4.32296
4.32597
4.33994
4.36583
4.39168
4.41555
4.43871
4.45056
4.45075
4.44613
4.44694
4.44866
4.44741
4.44242
4.43317
4.41938
4.40817
4.40285
4.40069
4.40247
4.40881
4.4217
4.43317
4.43881
4.43842
4.43529
4.43464
4.43639
4.43727
4.43712
4.4364
4.43325
4.42716
4.4215
4.41922
1
1
1
1
1
1
1
1
1
1
1
1
1
1
1
1
1
1
1
1
1
1
1
1
1
0.999989
1.00003
0.999845
1.00748
1.09613
1.29415
1.7976
2.50301
3.27159
3.846
4.04793
4.26223
4.35095
4.40956
4.46512
4.48546
4.48569
4.4714
4.43607
4.40504
4.38668
4.38482
4.38381
4.37596
4.37042
4.37324
4.37453
4.3722
4.377
4.39135
4.41921
4.44811
4.46096
4.4653
4.46778
4.4671
4.46023
4.44433
4.42168
4.40537
4.40332
4.40674
4.40746
4.40441
4.4001
4.40019
4.40498
4.41624
4.43183
4.44399
4.44626
4.44763
4.44788
4.44462
4.43732
1
1
1
1
1
1
1
1
1
1
1
1
1
1
1
1
1
1
1
1
1
1
1
1
1
1
1
0.999999
0.999987
1.00007
1.00005
1.01177
1.10036
1.29309
1.83788
2.59154
3.44555
3.79509
3.9985
4.18344
4.2734
4.34378
4.39198
4.42555
4.44433
4.45371
4.4595
4.46066
4.45908
4.4377
4.387
4.34713
4.33656
4.33791
4.35167
4.37303
4.39623
4.4282
4.45195
4.462
4.46459
4.46521
4.46086
4.45439
4.44609
4.43385
4.42223
4.41295
4.40291
4.39672
4.39567
4.39825
4.40523
4.41697
4.43413
4.44893
4.454
4.45499
4.45378
4.44597
1
1
1
1
1
1
1
1
1
1
1
1
1
1
1
1
1
1
1
1
1
1
1
1
1
1
1
1
1
1
1
1
0.999983
1.00027
1.01995
1.12674
1.40091
2.00813
2.71551
3.57443
3.87569
4.0683
4.16601
4.23944
4.34399
4.44638
4.48209
4.49033
4.49222
4.47897
4.45741
4.43066
4.39517
4.36502
4.35878
4.36722
4.38373
4.39263
4.39666
4.4016
4.41173
4.4239
4.43515
4.44403
4.44992
4.45468
4.45981
4.45653
4.44332
4.42079
4.40079
4.39637
4.40194
4.41427
4.426
4.43445
4.44089
4.44404
4.44611
4.445
1
1
1
1
1
1
1
1
1
1
1
1
1
1
1
1
1
1
1
1
1
1
1
1
1
1
1
1
1
1
1
1
0.999999
0.999998
1.00002
1.00001
1.00162
1.03961
1.1528
1.50507
2.21568
3.08387
3.70823
3.87509
4.06564
4.20435
4.29209
4.35862
4.42046
4.46249
4.47076
4.45788
4.4399
4.44012
4.44781
4.45068
4.43478
4.40702
4.38248
4.37405
4.3763
4.37889
4.38121
4.39054
4.41325
4.44417
4.46133
4.4616
4.45795
4.45041
4.43708
4.42571
4.42183
4.42175
4.4239
4.42912
4.43009
4.42969
4.42866
4.42884
1
1
1
1
1
1
1
1
1
1
1
1
1
1
1
1
1
1
1
1
1
1
1
1
1
1
1
1
1
1
1
1
1
1
1
1
0.999997
1.00003
1.00009
1.00503
1.075
1.26637
1.77943
2.49997
3.42256
3.89299
4.0527
4.14257
4.19103
4.26823
4.37107
4.43534
4.44228
4.45499
4.47726
4.49644
4.50064
4.48866
4.4565
4.4123
4.38301
4.36914
4.3662
4.36944
4.3794
4.403
4.42856
4.44934
4.45384
4.45007
4.4424
4.44012
4.44455
4.44517
4.44266
4.43874
4.43275
4.4258
4.41935
4.419
1
1
1
1
1
1
1
1
1
1
1
1
1
1
1
1
1
1
1
1
1
1
1
1
1
1
1
1
1
1
1
1
1
1
1
1
1
1
0.999999
1
1.00003
1.00086
1.02287
1.13409
1.44836
2.14541
3.04848
3.86181
4.01662
4.09545
4.20312
4.2502
4.26947
4.29925
4.37203
4.4557
4.48826
4.48292
4.47054
4.46505
4.45965
4.44568
4.41807
4.3918
4.3829
4.3922
4.40969
4.41309
4.41328
4.41006
4.41444
4.42783
4.43955
4.44367
4.44384
4.44304
4.44183
4.43653
4.42571
4.42066
1
1
1
1
1
1
1
1
1
1
1
1
1
1
1
1
1
1
1
1
1
1
1
1
1
1
1
1
1
1
1
1
1
1
1
1
1
1
1
1
1
0.999999
0.999988
1.00021
1.00473
1.07747
1.30476
1.87907
2.64546
3.5652
4.10797
4.16519
4.23868
4.20533
4.21605
4.29199
4.37139
4.40794
4.434
4.45631
4.46954
4.48222
4.47711
4.46665
4.45842
4.44868
4.43547
4.41885
4.39916
4.39187
4.39377
4.40365
4.42445
4.43479
4.43591
4.43515
4.43431
4.43214
4.42541
4.42611
1
1
1
1
1
1
1
1
1
1
1
1
1
1
1
1
1
1
1
1
1
1
1
1
1
1
1
1
1
1
1
1
1
1
1
1
1
1
1
1
1
1
0.999999
0.999999
0.99999
1.0001
1.00197
1.03516
1.19516
1.62106
2.39657
3.34835
4.09884
4.21389
4.23269
4.28957
4.30789
4.30648
4.2951
4.30738
4.34684
4.41512
4.45857
4.4672
4.47515
4.4832
4.48202
4.47011
4.43658
4.40828
4.39957
4.40211
4.41399
4.41797
4.41783
4.41651
4.41575
4.41567
4.41529
4.4204
1
1
1
1
1
1
1
1
1
1
1
1
1
1
1
1
1
1
1
1
1
1
1
1
1
1
1
1
1
1
1
1
1
1
1
1
1
1
1
1
1
1
1
1
0.999999
0.999999
0.999999
1
1.00085
1.01416
1.13981
1.52988
2.37687
3.25211
3.90276
4.31855
4.4048
4.39498
4.28702
4.25239
4.26708
4.31686
4.378
4.3905
4.40932
4.45003
4.47422
4.47196
4.4451
4.43119
4.43206
4.43644
4.43651
4.43059
4.42312
4.41583
4.41135
4.40983
4.40888
4.41265
1
1
1
1
1
1
1
1
1
1
1
1
1
1
1
1
1
1
1
1
1
1
1
1
1
1
1
1
1
1
1
1
1
1
1
1
1
1
1
1
1
1
1
1
1
1
1
1
1
0.999986
1.00061
1.01081
1.14201
1.5223
2.17931
3.04998
3.94401
4.3381
4.34525
4.35476
4.41185
4.39882
4.38254
4.36221
4.35351
4.37804
4.39804
4.40482
4.40764
4.41239
4.42941
4.44775
4.45461
4.45145
4.44493
4.43751
4.43227
4.42801
4.4223
4.41627
1
1
1
1
1
1
1
1
1
1
1
1
1
1
1
1
1
1
1
1
1
1
1
1
1
1
1
1
1
1
1
1
1
1
1
1
1
1
1
1
1
1
1
1
1
1
1
1
1
0.999999
0.999999
0.999987
1.00076
1.00914
1.0969
1.43384
2.15886
3.13692
3.85208
4.20296
4.43336
4.48839
4.4892
4.45494
4.39628
4.37745
4.36962
4.35816
4.36232
4.36433
4.37963
4.40921
4.44069
4.44678
4.4407
4.43648
4.43631
4.43707
4.4394
4.4344
1
1
1
1
1
1
1
1
1
1
1
1
1
1
1
1
1
1
1
1
1
1
1
1
1
1
1
1
1
1
1
1
1
1
1
1
1
1
1
1
1
1
1
1
1
1
1
1
1
1
1
0.999998
0.999999
0.999989
1.00042
1.00731
1.09161
1.55246
2.41523
3.1401
3.83204
4.34677
4.46227
4.45527
4.47065
4.50039
4.49687
4.451
4.40323
4.37555
4.38513
4.40846
4.41597
4.41348
4.40596
4.40566
4.41411
4.42937
4.43412
4.43503
1
1
1
1
1
1
1
1
1
1
1
1
1
1
1
1
1
1
1
1
1
1
1
1
1
1
1
1
1
1
1
1
1
1
1
1
1
1
1
1
1
1
1
1
1
1
1
1
1
1
1
1
1
0.999998
0.999999
0.999991
1.00061
1.01603
1.14001
1.62969
2.43744
3.39325
3.92948
4.16174
4.32972
4.44745
4.48925
4.48304
4.46052
4.44849
4.45561
4.46246
4.44523
4.42236
4.40076
4.39437
4.39847
4.39873
4.39552
4.40647
1
1
1
1
1
1
1
1
1
1
1
1
1
1
1
1
1
1
1
1
1
1
1
1
1
1
1
1
1
1
1
1
1
1
1
1
1
1
1
1
1
1
1
1
1
1
1
1
1
1
1
1
1
1
1
0.999999
0.999999
0.999998
1.00119
1.023
1.15149
1.71014
2.86333
3.67505
3.90923
4.15532
4.38373
4.37296
4.33791
4.37468
4.4524
4.49234
4.48655
4.46562
4.45045
4.44242
4.43053
4.40813
4.38883
4.39142
1
1
1
1
1
1
1
1
1
1
1
1
1
1
1
1
1
1
1
1
1
1
1
1
1
1
1
1
1
1
1
1
1
1
1
1
1
1
1
1
1
1
1
1
1
1
1
1
1
1
1
1
1
1
1
1
1
0.999999
0.999998
1.00001
1.00156
1.03762
1.28037
2.09043
3.07049
3.95474
4.33705
4.30243
4.20441
4.23229
4.32957
4.41858
4.44132
4.43548
4.44454
4.47054
4.47993
4.46086
4.41728
4.4057
1
1
1
1
1
1
1
1
1
1
1
1
1
1
1
1
1
1
1
1
1
1
1
1
1
1
1
1
1
1
1
1
1
1
1
1
1
1
1
1
1
1
1
1
1
1
1
1
1
1
1
1
1
1
1
1
1
1
1
1
0.999997
1.00013
1.00574
1.10505
1.48514
2.34227
3.50528
4.24052
4.28959
4.35861
4.35859
4.35501
4.3529
4.32904
4.33461
4.38842
4.44439
4.45123
4.43609
4.42732
1
1
1
1
1
1
1
1
1
1
1
1
1
1
1
1
1
1
1
1
1
1
1
1
1
1
1
1
1
1
1
1
1
1
1
1
1
1
1
1
1
1
1
1
1
1
1
1
1
1
1
1
1
1
1
1
1
1
1
1
0.999999
0.999999
0.999999
1.00088
1.01674
1.17768
1.72892
2.97135
3.80585
4.27919
4.45309
4.48661
4.46186
4.38443
4.34566
4.35885
4.38256
4.39557
4.41025
4.4326
1
1
1
1
1
1
1
1
1
1
1
1
1
1
1
1
1
1
1
1
1
1
1
1
1
1
1
1
1
1
1
1
1
1
1
1
1
1
1
1
1
1
1
1
1
1
1
1
1
1
1
1
1
1
1
1
1
1
1
1
1
1
1
0.999998
1.00003
1.00247
1.04654
1.49208
2.49116
3.36828
4.1084
4.41911
4.48049
4.49235
4.46664
4.43626
4.39273
4.36714
4.38422
4.42595
1
1
1
1
1
1
1
1
1
1
1
1
1
1
1
1
1
1
1
1
1
1
1
1
1
1
1
1
1
1
1
1
1
1
1
1
1
1
1
1
1
1
1
1
1
1
1
1
1
1
1
1
1
1
1
1
1
1
1
1
1
1
1
1
1
0.999998
1.00045
1.01954
1.24989
1.90818
2.94115
3.77581
4.25177
4.41296
4.44853
4.45176
4.44553
4.41585
4.42089
4.4422
1
1
1
1
1
1
1
1
1
1
1
1
1
1
1
1
1
1
1
1
1
1
1
1
1
1
1
1
1
1
1
1
1
1
1
1
1
1
1
1
1
1
1
1
1
1
1
1
1
1
1
1
1
1
1
1
1
1
1
1
1
1
1
1
1
1
0.999999
1.00007
1.00654
1.06786
1.45527
2.59891
3.70461
4.00361
4.18184
4.35648
4.42658
4.4175
4.38581
4.40795
1
1
1
1
1
1
1
1
1
1
1
1
1
1
1
1
1
1
1
1
1
1
1
1
1
1
1
1
1
1
1
1
1
1
1
1
1
1
1
1
1
1
1
1
1
1
1
1
1
1
1
1
1
1
1
1
1
1
1
1
1
1
1
1
1
1
1
1
1
1.00057
1.02444
1.24527
2.1979
3.3331
4.11504
4.42016
4.43034
4.38739
4.29674
4.30253
1
1
1
1
1
1
1
1
1
1
1
1
1
1
1
1
1
1
1
1
1
1
1
1
1
1
1
1
1
1
1
1
1
1
1
1
1
1
1
1
1
1
1
1
1
1
1
1
1
1
1
1
1
1
1
1
1
1
1
1
1
1
1
1
1
1
1
1
1
0.999999
1.00018
1.00795
1.17761
1.82673
2.87148
3.97816
4.45858
4.48224
4.44216
4.32943
1
1
1
1
1
1
1
1
1
1
1
1
1
1
1
1
1
1
1
1
1
1
1
1
1
1
1
1
1
1
1
1
1
1
1
1
1
1
1
1
1
1
1
1
1
1
1
1
1
1
1
1
1
1
1
1
1
1
1
1
1
1
1
1
1
1
1
1
1
1
1
1.00004
1.0045
1.07363
1.54409
2.62408
3.76624
4.38565
4.47389
4.45789
1
1
1
1
1
1
1
1
1
1
1
1
1
1
1
1
1
1
1
1
1
1
1
1
1
1
1
1
1
1
1
1
1
1
1
1
1
1
1
1
1
1
1
1
1
1
1
1
1
1
1
1
1
1
1
1
1
1
1
1
1
1
1
1
1
1
1
1
1
1
1
1
1.00001
1.00117
1.03418
1.35801
2.40312
3.57171
4.36806
4.44126
1
1
1
1
1
1
1
1
1
1
1
1
1
1
1
1
1
1
1
1
1
1
1
1
1
1
1
1
1
1
1
1
1
1
1
1
1
1
1
1
1
1
1
1
1
1
1
1
1
1
1
1
1
1
1
1
1
1
1
1
1
1
1
1
1
1
1
1
1
1
1
1
1
1
1.0004
1.0162
1.28461
2.23701
3.45944
4.21517
1
1
1
1
1
1
1
1
1
1
1
1
1
1
1
1
1
1
1
1
1
1
1
1
1
1
1
1
1
1
1
1
1
1
1
1
1
1
1
1
1
1
1
1
1
1
1
1
1
1
1
1
1
1
1
1
1
1
1
1
1
1
1
1
1
1
1
1
1
1
1
1
1
1
1
1.00019
1.01308
1.21413
2.05216
3.61357
1
1
1
1
1
1
1
1
1
1
1
1
1
1
1
1
1
1
1
1
1
1
1
1
1
1
1
1
1
1
1
1
1
1
1
1
1
1
1
1
1
1
1
1
1
1
1
1
1
1
1
1
1
1
1
1
1
1
1
1
1
1
1
1
1
1
1
1
1
1
1
1
1
1
1
1
1.00012
1.01068
1.13505
2.4503
1
1
1
1
1
1
1
1
1
1
1
1
1
1
1
1
1
1
1
1
1
1
1
1
1
1
1
1
1
1
1
1
1
1
1
1
1
1
1
1
1
1
1
1
1
1
1
1
1
1
1
1
1
1
1
1
1
1
1
1
1
1
1
1
1
1
1
1
1
1
1
1
1
1
1
1
1
1.00011
1.00413
1.48391
1
1
1
1
1
1
1
1
1
1
1
1
1
1
1
1
1
1
1
1
1
1
1
1
1
1
1
1
1
1
1
1
1
1
1
1
1
1
1
1
1
1
1
1
1
1
1
1
1
1
1
1
1
1
1
1
1
1
1
1
1
1
1
1
1
1
1
1
1
1
1
1
1
1
1
1
1
1
1.00007
1.09198
1
1
1
1
1
1
1
1
1
1
1
1
1
1
1
1
1
1
1
1
1
1
1
1
1
1
1
1
1
1
1
1
1
1
1
1
1
1
1
1
1
1
1
1
1
1
1
1
1
1
1
1
1
1
1
1
1
1
1
1
1
1
1
1
1
1
1
1
1
1
1
1
1
1
1
1
1
1
1
1.01119
1
1
1
1
1
1
1
1
1
1
1
1
1
1
1
1
1
1
1
1
1
1
1
1
1
1
1
1
1
1
1
1
1
1
1
1
1
1
1
1
1
1
1
1
1
1
1
1
1
1
1
1
1
1
1
1
1
1
1
1
1
1
1
1
1
1
1
1
1
1
1
1
1
1
1
1
1
1
1
1.00092
1
1
1
1
1
1
1
1
1
1
1
1
1
1
1
1
1
1
1
1
1
1
1
1
1
1
1
1
1
1
1
1
1
1
1
1
1
1
1
1
1
1
1
1
1
1
1
1
1
1
1
1
1
1
1
1
1
1
1
1
1
1
1
1
1
1
1
1
1
1
1
1
1
1
1
1
1
1
1
1.00004
)
;

boundaryField
{
    inlet
    {
        type            fixedValue;
        value           uniform 1;
    }
    outlet
    {
        type            zeroGradient;
    }
    bottom
    {
        type            symmetryPlane;
    }
    top
    {
        type            symmetryPlane;
    }
    obstacle
    {
        type            zeroGradient;
    }
    defaultFaces
    {
        type            empty;
    }
}


// ************************************************************************* //
