/*--------------------------------*- C++ -*----------------------------------*\
| =========                 |                                                 |
| \\      /  F ield         | OpenFOAM: The Open Source CFD Toolbox           |
|  \\    /   O peration     | Version:  2206                                  |
|   \\  /    A nd           | Website:  www.openfoam.com                      |
|    \\/     M anipulation  |                                                 |
\*---------------------------------------------------------------------------*/
FoamFile
{
    version     2.0;
    format      ascii;
    arch        "LSB;label=32;scalar=64";
    class       volScalarField;
    location    "0.08";
    object      p;
}
// * * * * * * * * * * * * * * * * * * * * * * * * * * * * * * * * * * * * * //

dimensions      [1 -1 -2 0 0 0 0];

internalField   nonuniform List<scalar> 
75
(
1
1
1
1
1
1
1
1
1
1
1
1
1
1
1
1
1
1
1
1
1
1
1
1
1
1.2743
1.73715
2.34361
3.06012
3.91796
4.78611
5.77971
6.47233
6.49114
5.98762
0.999543
1.00789
1.04516
1.1559
1.36198
1.76813
2.3192
3.07261
3.84023
4.16932
0.999985
0.999949
0.999822
1.00104
1.00019
1.01695
1.0932
1.40681
2.14399
3.83996
1
0.99999
0.999999
0.999989
0.999961
1.00003
0.999277
1.00696
1.08249
2.185
1
1
1
0.999997
0.999981
0.999968
0.999785
0.99968
1.00099
1.1843
)
;

boundaryField
{
    inlet
    {
        type            fixedValue;
        value           uniform 1;
    }
    outlet
    {
        type            zeroGradient;
    }
    bottom
    {
        type            symmetryPlane;
    }
    top
    {
        type            symmetryPlane;
    }
    obstacle
    {
        type            zeroGradient;
    }
    defaultFaces
    {
        type            empty;
    }
}


// ************************************************************************* //
