/*--------------------------------*- C++ -*----------------------------------*\
| =========                 |                                                 |
| \\      /  F ield         | OpenFOAM: The Open Source CFD Toolbox           |
|  \\    /   O peration     | Version:  2206                                  |
|   \\  /    A nd           | Website:  www.openfoam.com                      |
|    \\/     M anipulation  |                                                 |
\*---------------------------------------------------------------------------*/
FoamFile
{
    version     2.0;
    format      ascii;
    arch        "LSB;label=32;scalar=64";
    class       volVectorField;
    location    "0.06";
    object      U;
}
// * * * * * * * * * * * * * * * * * * * * * * * * * * * * * * * * * * * * * //

dimensions      [0 1 -1 0 0 0 0];

internalField   nonuniform List<vector> 
4800
(
(3.20202 -1.26689e-14 0)
(3.20202 -1.58527e-14 0)
(3.20202 9.38829e-15 0)
(3.20202 5.98003e-14 0)
(3.20202 9.84737e-14 0)
(3.20202 7.90436e-14 0)
(3.20202 4.19739e-14 0)
(3.20202 -8.60815e-15 0)
(3.20202 -6.39577e-14 0)
(3.20202 -6.42378e-14 0)
(3.20202 -6.2044e-14 0)
(3.20202 -2.47943e-14 0)
(3.20202 -1.5336e-14 0)
(3.20202 1.25722e-14 0)
(3.20202 5.76766e-15 0)
(3.20202 -2.46576e-14 0)
(3.20202 -1.90533e-14 0)
(3.20202 -1.01861e-13 0)
(3.20202 -1.07022e-13 0)
(3.20202 -7.81035e-14 0)
(3.20202 -6.19707e-14 0)
(3.20202 -5.13855e-14 0)
(3.20202 2.18938e-14 0)
(3.20202 1.02161e-13 0)
(3.20202 1.36594e-13 0)
(3.20202 1.41158e-13 0)
(3.20202 1.26555e-13 0)
(3.20202 6.75483e-14 0)
(3.20202 2.40375e-15 0)
(3.20202 -6.61914e-14 0)
(3.20202 -3.98469e-14 0)
(3.20202 -1.16353e-15 0)
(3.20202 -9.40029e-14 0)
(3.20202 -1.68726e-13 0)
(3.20202 -1.16397e-13 0)
(3.20202 -1.00367e-13 0)
(3.20202 -4.34742e-15 0)
(3.20202 4.34108e-14 0)
(3.20202 1.1379e-13 0)
(3.20202 1.46115e-13 0)
(3.20202 -3.16055e-15 0)
(3.20202 5.58096e-15 0)
(3.20202 3.39225e-14 0)
(3.20202 5.70799e-14 0)
(3.20202 1.60051e-13 0)
(3.20202 2.44005e-13 0)
(3.20202 2.52077e-13 0)
(3.20202 1.07499e-13 0)
(3.20202 5.52495e-14 0)
(3.20202 1.06752e-14 0)
(3.20202 2.37841e-14 0)
(3.20202 3.86833e-14 0)
(3.20202 -6.07772e-15 0)
(3.20202 -9.58165e-15 0)
(3.20202 3.08053e-15 0)
(3.20202 -3.56128e-14 0)
(3.20202 -2.37341e-14 0)
(3.20202 -2.5111e-14 0)
(3.20202 -8.86353e-14 0)
(3.20202 -1.52453e-13 0)
(3.20202 -1.73563e-13 0)
(3.20202 -1.62408e-13 0)
(3.20202 -1.24498e-13 0)
(3.20202 3.17722e-14 0)
(3.20202 1.32906e-13 0)
(3.20202 1.77057e-13 0)
(3.20202 4.4271e-14 0)
(3.20202 -4.08237e-14 0)
(3.20202 -6.25208e-14 0)
(3.20202 -5.74032e-14 0)
(3.20202 -4.65847e-14 0)
(3.20202 2.08403e-14 0)
(3.20202 -1.35313e-13 0)
(3.20202 -2.65199e-13 0)
(3.20202 -1.9361e-13 0)
(3.20202 -8.80619e-14 0)
(3.20202 5.73132e-14 0)
(3.20202 8.5048e-14 0)
(3.20202 7.03388e-14 0)
(3.20202 8.66412e-14 0)
(3.20202 -4.11404e-15 0)
(3.20202 -5.54096e-15 0)
(3.20202 -2.65879e-14 0)
(3.20202 -8.13474e-15 0)
(3.20202 3.48727e-14 0)
(3.20202 6.46245e-14 0)
(3.20202 8.05506e-14 0)
(3.20202 2.00575e-13 0)
(3.20202 1.81698e-13 0)
(3.20202 1.27672e-13 0)
(3.20202 1.24852e-13 0)
(3.20202 1.14033e-13 0)
(3.20202 7.59331e-14 0)
(3.20202 1.36357e-14 0)
(3.20202 2.55577e-14 0)
(3.20202 2.23472e-14 0)
(3.20202 1.55127e-14 0)
(3.20202 5.98003e-14 0)
(3.20202 7.3106e-14 0)
(3.20202 -2.41242e-14 0)
(3.20202 -3.77932e-14 0)
(3.20202 -3.57495e-14 0)
(3.20202 4.81917e-14 0)
(3.20202 1.16027e-13 0)
(3.20202 1.65779e-13 0)
(3.20202 7.87569e-14 0)
(3.20202 -3.00952e-14 0)
(3.20202 4.34608e-14 0)
(3.20202 6.72983e-14 0)
(3.20202 7.60998e-14 0)
(3.20202 3.47093e-14 0)
(3.20202 2.30473e-14 0)
(3.20202 -6.9282e-14 0)
(3.20202 -2.40835e-13 0)
(3.20202 -2.70603e-13 0)
(3.20202 -2.11186e-13 0)
(3.20202 -1.20631e-13 0)
(3.20202 -1.04028e-13 0)
(3.20202 -1.35913e-13 0)
(3.20202 -1.7192e-13 0)
(3.20202 -6.9212e-15 0)
(3.20202 -2.13637e-14 0)
(3.20202 -3.90301e-14 0)
(3.20202 -3.30157e-14 0)
(3.20202 -4.77082e-15 0)
(3.20202 9.89838e-15 0)
(3.20202 6.73116e-15 0)
(3.20202 2.93351e-14 0)
(3.20202 9.79502e-15 0)
(3.20202 -1.03351e-16 0)
(3.20202 1.21821e-14 0)
(3.20202 7.19558e-14 0)
(3.20202 1.26489e-13 0)
(3.20202 1.14616e-13 0)
(3.20202 1.07682e-13 0)
(3.20202 7.1679e-14 0)
(3.20202 2.92984e-14 0)
(3.20202 4.58412e-14 0)
(3.20202 7.67366e-14 0)
(3.20202 1.37957e-13 0)
(3.20202 1.10392e-13 0)
(3.20202 5.777e-14 0)
(3.20202 2.77748e-14 0)
(3.20202 2.6838e-14 0)
(3.20202 4.89518e-14 0)
(3.20202 1.56494e-14 0)
(3.20202 -1.64262e-14 0)
(3.20202 -2.05202e-14 0)
(3.20202 7.79635e-14 0)
(3.20202 1.19427e-13 0)
(3.20202 1.22821e-13 0)
(3.20202 1.40964e-13 0)
(3.20202 5.35859e-14 0)
(3.20202 -6.68282e-14 0)
(3.20202 -1.05365e-13 0)
(3.20202 -1.30689e-13 0)
(3.20202 -1.46835e-13 0)
(3.20202 -2.18501e-13 0)
(3.20202 -1.24912e-13 0)
(3.20202 -6.22094e-14 0)
(3.20202 2.20838e-14 0)
(3.20202 2.04869e-14 0)
(3.20202 3.20389e-15 0)
(3.20202 -2.84182e-14 0)
(3.20202 -7.56497e-14 0)
(3.20202 -4.51645e-14 0)
(3.20202 3.17588e-14 0)
(3.20202 4.14738e-15 0)
(3.20202 -1.04848e-13 0)
(3.20202 -1.13673e-13 0)
(3.20202 -9.69801e-14 0)
(3.20202 6.89119e-15 0)
(3.20202 3.07586e-14 0)
(3.20202 3.21189e-14 0)
(3.20202 1.83132e-14 0)
(3.20202 9.52098e-14 0)
(3.20202 1.43148e-13 0)
(3.20202 1.52763e-13 0)
(3.20202 1.49799e-13 0)
(3.20202 1.17357e-13 0)
(3.20202 1.54387e-13 0)
(3.20202 1.30232e-13 0)
(3.20202 6.9412e-14 0)
(3.20202 7.67299e-14 0)
(3.20202 -9.83503e-15 0)
(3.20202 -1.94034e-14 0)
(3.20202 -2.97885e-14 0)
(3.20202 1.54227e-14 0)
(3.20202 4.97419e-14 0)
(3.20202 -1.03351e-16 0)
(3.20202 1.13186e-14 0)
(3.20202 -3.66963e-14 0)
(3.20202 -7.76301e-14 0)
(3.20202 -6.31576e-14 0)
(3.20202 -7.46696e-14 0)
(3.20202 -1.08252e-13 0)
(3.20202 -1.5375e-13 0)
(3.20202 -2.07272e-13 0)
(3.20202 -2.24865e-13 0)
(3.20202 -6.30476e-14 0)
(3.20202 3.69164e-14 0)
(3.20202 9.32028e-14 0)
(3.20202 9.18659e-14 0)
(3.20202 6.94453e-15 0)
(3.20202 -1.04318e-13 0)
(3.20202 -1.19441e-13 0)
(3.20202 -9.2526e-14 0)
(3.20202 -8.25309e-14 0)
(3.20202 -9.17358e-14 0)
(3.20202 -3.62029e-14 0)
(3.20202 -6.43678e-14 0)
(3.20202 -9.81636e-14 0)
(3.20202 -9.25026e-14 0)
(3.20202 -3.97135e-14 0)
(3.20202 -3.02986e-14 0)
(3.20202 8.66416e-14 0)
(3.20202 1.65022e-13 0)
(3.20202 1.59031e-13 0)
(3.20202 1.27842e-13 0)
(3.20202 8.97322e-14 0)
(3.20202 1.28165e-13 0)
(3.20202 1.22641e-13 0)
(3.20202 1.07369e-13 0)
(3.20202 9.76469e-14 0)
(3.20202 5.0032e-14 0)
(3.20202 6.02004e-14 0)
(3.20202 1.20431e-13 0)
(3.20202 1.25815e-13 0)
(3.20202 1.00674e-13 0)
(3.20202 1.62361e-15 0)
(3.20202 -4.2674e-16 0)
(3.20202 -4.60213e-14 0)
(3.20202 -1.04871e-13 0)
(3.20202 -6.32076e-14 0)
(3.20202 -4.76216e-14 0)
(3.20202 -1.03981e-13 0)
(3.20202 -1.59714e-13 0)
(3.20202 -1.75787e-13 0)
(3.20202 -1.80398e-13 0)
(3.20202 -1.45704e-13 0)
(3.20202 1.27055e-14 0)
(3.20202 4.46744e-14 0)
(3.20202 8.42479e-14 0)
(3.20202 9.65333e-14 0)
(3.20202 6.7485e-14 0)
(3.20202 1.25688e-15 0)
(3.20202 -7.27359e-14 0)
(3.20202 -5.0362e-14 0)
(3.20202 1.04685e-14 0)
(3.20202 3.41326e-14 0)
(3.20202 -6.00104e-16 0)
(3.20202 -2.49876e-14 0)
(3.20202 1.04185e-14 0)
(3.20202 4.6358e-14 0)
(3.20202 1.03541e-13 0)
(3.20202 1.03531e-13 0)
(3.20202 1.59981e-13 0)
(3.20202 1.68856e-13 0)
(3.20202 1.46355e-13 0)
(3.20202 4.2194e-14 0)
(3.20202 -5.76433e-15 0)
(3.20202 1.62561e-14 0)
(3.20202 3.84566e-14 0)
(3.20202 -8.1314e-15 0)
(3.20202 5.00086e-16 0)
(3.20202 4.12004e-14 0)
(3.20202 1.34887e-13 0)
(3.20202 1.21551e-13 0)
(3.20202 6.86552e-14 0)
(3.20202 5.83567e-14 0)
(3.20202 3.29757e-14 0)
(3.20202 -4.07937e-14 0)
(3.20202 -4.28374e-14 0)
(3.20202 -3.14888e-14 0)
(3.20202 4.4271e-14 0)
(3.20202 4.67414e-14 0)
(3.20202 -3.81866e-14 0)
(3.20202 -8.56815e-16 0)
(3.20202 5.11088e-15 0)
(3.20202 -1.16555e-14 0)
(3.20202 -5.59763e-15 0)
(3.20202 -2.88617e-14 0)
(3.20202 -5.76099e-15 0)
(3.20202 1.07592e-13 0)
(3.20202 1.29716e-13 0)
(3.20202 4.4531e-14 0)
(3.20202 -2.24939e-14 0)
(3.20202 5.25291e-14 0)
(3.20202 8.79685e-14 0)
(3.20202 7.31626e-14 0)
(3.20202 1.73763e-14 0)
(3.20202 4.68114e-14 0)
(3.20202 1.04225e-13 0)
(3.20202 1.03895e-13 0)
(3.20202 1.02941e-13 0)
(3.20202 1.98428e-13 0)
(3.20202 2.13133e-13 0)
(3.20202 1.67126e-13 0)
(3.20202 9.91071e-14 0)
(3.20202 4.85417e-15 0)
(3.20202 -4.29841e-14 0)
(3.20202 -2.58378e-15 0)
(3.20202 5.12422e-15 0)
(3.20202 -7.36094e-14 0)
(3.20202 -5.43294e-14 0)
(3.20202 7.74334e-14 0)
(3.20202 1.22911e-13 0)
(3.20202 7.5253e-14 0)
(3.20202 -3.10087e-14 0)
(3.20202 -5.19456e-14 0)
(3.20202 -2.82515e-14 0)
(3.20202 -2.01435e-14 0)
(3.20202 2.58978e-14 0)
(3.20202 4.34408e-14 0)
(3.20202 4.32508e-14 0)
(3.20202 3.07386e-14 0)
(3.20202 4.76649e-14 0)
(3.20202 6.69216e-14 0)
(3.20202 4.0627e-14 0)
(3.20202 5.20689e-14 0)
(3.20202 -6.17773e-15 0)
(3.20202 -2.02902e-14 0)
(3.20202 -3.35025e-14 0)
(3.20202 -3.98636e-14 0)
(3.20202 -2.12837e-14 0)
(3.20202 1.02684e-14 0)
(3.20202 3.59895e-14 0)
(3.20202 3.55495e-14 0)
(3.20202 1.55627e-14 0)
(3.20202 3.02952e-14 0)
(3.20202 4.34242e-14 0)
(3.20202 1.64295e-14 0)
(3.20202 2.4931e-14 0)
(3.20202 5.33459e-14 0)
(3.20202 9.20059e-14 0)
(3.20202 1.03715e-13 0)
(3.20202 2.38541e-14 0)
(3.20202 6.53446e-15 0)
(3.20202 -5.47661e-14 0)
(3.20202 -1.1764e-13 0)
(3.20202 -1.1683e-13 0)
(3.20202 -1.07789e-13 0)
(3.20202 -5.9827e-14 0)
(3.20202 -1.11586e-14 0)
(3.20202 -5.86468e-14 0)
(3.20202 -5.98437e-15 0)
(3.20202 2.75881e-14 0)
(3.20202 -1.05785e-14 0)
(3.20202 -8.69517e-14 0)
(3.20202 -1.563e-13 0)
(3.20202 -1.30656e-13 0)
(3.20202 -6.46778e-16 0)
(3.20202 7.14657e-14 0)
(3.20202 4.87518e-14 0)
(3.20202 -4.60413e-15 0)
(3.20202 -3.62863e-14 0)
(3.20202 3.51261e-14 0)
(3.20202 5.76166e-14 0)
(3.20202 9.29394e-14 0)
(3.20202 1.1573e-13 0)
(3.20202 8.18475e-15 0)
(3.20202 2.03202e-14 0)
(3.20202 5.83767e-15 0)
(3.20202 -1.84632e-14 0)
(3.20202 -8.96822e-16 0)
(3.20202 4.31875e-14 0)
(3.20202 5.48795e-14 0)
(3.20202 1.69496e-14 0)
(3.20202 5.2199e-14 0)
(3.20202 8.93454e-14 0)
(3.20202 1.59154e-13 0)
(3.20202 1.34607e-13 0)
(3.20202 9.41563e-14 0)
(3.20202 4.58513e-14 0)
(3.20202 7.40961e-14 0)
(3.20202 3.20889e-14 0)
(3.20202 -2.10436e-14 0)
(3.20202 -1.40824e-14 0)
(3.20202 -4.70681e-14 0)
(3.20202 -8.03505e-14 0)
(3.20202 -1.43181e-13 0)
(3.20202 -1.83802e-13 0)
(3.20202 -1.45028e-13 0)
(3.20202 -2.92751e-14 0)
(3.20202 -3.75365e-14 0)
(3.20202 -8.34911e-14 0)
(3.20202 -1.28005e-13 0)
(3.20202 -1.27335e-13 0)
(3.20202 -7.1609e-14 0)
(3.20202 -8.83353e-14 0)
(3.20202 -1.01684e-13 0)
(3.20202 -4.55579e-14 0)
(3.20202 -5.11588e-14 0)
(3.20202 -1.28255e-14 0)
(3.20202 -6.15606e-14 0)
(3.20202 -8.09306e-14 0)
(3.20202 -5.3996e-14 0)
(3.20202 -2.63612e-14 0)
(3.20202 1.24755e-14 0)
(3.20202 7.79271e-16 0)
(3.20202 -9.8217e-15 0)
(3.20202 2.34574e-14 0)
(3.20202 6.21707e-14 0)
(3.20202 1.11986e-13 0)
(3.20202 1.10912e-13 0)
(3.20202 1.11946e-13 0)
(3.20202 2.09036e-14 0)
(3.20202 -4.28741e-14 0)
(3.20202 -8.73151e-15 0)
(3.20202 6.28108e-14 0)
(3.20202 8.23709e-14 0)
(3.20202 1.22965e-13 0)
(3.20202 1.16373e-13 0)
(3.20202 1.26032e-13 0)
(3.20202 4.21906e-14 0)
(3.20202 3.70464e-14 0)
(3.20202 5.83034e-14 0)
(3.20202 5.52062e-14 0)
(3.20202 5.15522e-14 0)
(3.20202 4.44477e-14 0)
(3.20202 5.85768e-15 0)
(3.20202 -2.07436e-14 0)
(3.20202 -3.40125e-14 0)
(3.20202 -1.00217e-14 0)
(3.20202 4.19772e-14 0)
(3.20202 7.78134e-15 0)
(3.20202 -1.65462e-14 0)
(3.20202 4.14272e-14 0)
(3.20202 1.09439e-13 0)
(3.20202 5.00253e-14 0)
(3.20202 1.46059e-14 0)
(3.20202 -4.24773e-14 0)
(3.20202 -2.07546e-13 0)
(3.20202 -1.3716e-13 0)
(3.20202 -8.60182e-14 0)
(3.20202 -2.53977e-14 0)
(3.20202 2.45376e-14 0)
(3.20202 1.1832e-14 0)
(3.20202 5.10421e-15 0)
(3.20202 9.29585e-15 0)
(3.20202 -3.31391e-15 0)
(3.20202 -3.80166e-14 0)
(3.20202 -1.23621e-14 0)
(3.20202 3.39992e-14 0)
(3.20202 4.91918e-14 0)
(3.20202 6.26308e-14 0)
(3.20202 2.4931e-14 0)
(3.20202 -3.38725e-15 0)
(3.20202 -2.95018e-14 0)
(3.20202 -2.79315e-14 0)
(3.20202 1.17987e-14 0)
(3.20202 -9.36828e-16 0)
(3.20202 -1.12219e-14 0)
(3.20202 2.77648e-14 0)
(3.20202 1.28155e-14 0)
(3.20202 1.903e-14 0)
(3.20202 4.50111e-14 0)
(3.20202 5.79067e-14 0)
(3.20202 8.13107e-14 0)
(3.20202 5.1869e-14 0)
(3.20202 6.7635e-14 0)
(3.20202 1.22605e-13 0)
(3.20202 1.07625e-13 0)
(3.20202 1.15773e-13 0)
(3.20202 1.21651e-13 0)
(3.20202 6.79451e-14 0)
(3.20202 5.45161e-14 0)
(3.20202 1.06732e-13 0)
(3.20202 1.27122e-13 0)
(3.20202 6.52613e-14 0)
(3.20202 -1.00304e-13 0)
(3.20202 -2.08799e-13 0)
(3.20202 -1.99151e-13 0)
(3.20202 -1.53743e-13 0)
(3.20202 -8.75018e-14 0)
(3.20202 4.25874e-14 0)
(3.20202 3.12154e-14 0)
(3.20202 5.16089e-14 0)
(3.20202 3.96168e-14 0)
(3.20202 -2.29883e-14 0)
(3.20202 6.08772e-15 0)
(3.20202 -7.37794e-15 0)
(3.20202 -5.07521e-14 0)
(3.20202 -5.52262e-14 0)
(3.20202 -2.08169e-14 0)
(3.20202 -4.48744e-15 0)
(3.20202 7.16124e-14 0)
(3.20202 1.00641e-13 0)
(3.20202 3.0782e-14 0)
(3.20202 -6.92986e-14 0)
(3.20202 -5.68165e-14 0)
(3.20202 -8.2781e-14 0)
(3.20202 -1.04088e-13 0)
(3.20202 -9.43263e-14 0)
(3.20202 -5.92536e-14 0)
(3.20202 -6.90619e-14 0)
(3.20202 -6.84952e-14 0)
(3.20202 -3.42159e-14 0)
(3.20202 7.61431e-14 0)
(3.20202 1.7189e-13 0)
(3.20202 1.9383e-13 0)
(3.20202 1.9014e-13 0)
(3.20202 1.88176e-13 0)
(3.20202 1.42871e-13 0)
(3.20202 9.42196e-14 0)
(3.20202 9.54331e-14 0)
(3.20202 4.61446e-14 0)
(3.20202 -1.71796e-14 0)
(3.20202 -2.57111e-14 0)
(3.20202 3.21055e-15 0)
(3.20202 -4.36775e-14 0)
(3.20202 -8.23509e-14 0)
(3.20202 -5.35126e-14 0)
(3.20202 -6.60114e-16 0)
(3.20202 -5.06187e-14 0)
(3.20202 7.31793e-15 0)
(3.20202 7.63565e-14 0)
(3.20202 1.26455e-14 0)
(3.20202 -2.20938e-14 0)
(3.20202 -1.80904e-14 0)
(3.20202 -1.80464e-14 0)
(3.20202 2.43375e-15 0)
(3.20202 8.26809e-15 0)
(3.20202 3.36725e-15 0)
(3.20202 1.59361e-14 0)
(3.20202 1.18687e-14 0)
(3.20202 6.0117e-14 0)
(3.20202 6.14973e-14 0)
(3.20202 3.70197e-14 0)
(3.20202 -4.04737e-15 0)
(3.20202 -3.05553e-14 0)
(3.20202 5.10088e-15 0)
(3.20202 -9.54165e-15 0)
(3.20202 -5.6113e-14 0)
(3.20202 -1.12489e-13 0)
(3.20202 -1.21561e-13 0)
(3.20202 -9.37062e-14 0)
(3.20202 -6.61248e-14 0)
(3.20202 -6.14773e-15 0)
(3.20202 6.08472e-14 0)
(3.20202 8.5128e-14 0)
(3.20202 6.89952e-14 0)
(3.20202 1.00451e-13 0)
(3.20202 9.4583e-14 0)
(3.20202 5.19123e-14 0)
(3.20202 7.01521e-14 0)
(3.20202 1.29052e-13 0)
(3.20202 9.65933e-14 0)
(3.20202 9.29761e-14 0)
(3.20202 1.21168e-13 0)
(3.20202 9.642e-14 0)
(3.20202 4.09571e-14 0)
(3.20202 3.50761e-14 0)
(3.20202 3.65363e-14 0)
(3.20202 7.79868e-14 0)
(3.20202 8.62849e-14 0)
(3.20202 1.29869e-13 0)
(3.20202 4.6548e-14 0)
(3.20202 -3.57595e-14 0)
(3.20202 7.58802e-15 0)
(3.20202 -1.13053e-14 0)
(3.20202 -2.96985e-14 0)
(3.20202 -1.58994e-14 0)
(3.20202 -3.1162e-14 0)
(3.20202 -1.94067e-14 0)
(3.20202 1.79231e-14 0)
(3.20202 1.51259e-14 0)
(3.20202 2.93384e-14 0)
(3.20202 7.30493e-14 0)
(3.20202 1.07905e-13 0)
(3.20202 6.18874e-14 0)
(3.20202 5.69065e-14 0)
(3.20202 3.06086e-14 0)
(3.20202 9.94838e-15 0)
(3.20202 4.43677e-14 0)
(3.20202 3.80799e-14 0)
(3.20202 3.4586e-14 0)
(3.20202 -8.13807e-15 0)
(3.20202 -3.868e-14 0)
(3.20202 -3.69997e-14 0)
(3.20202 -4.2314e-14 0)
(3.20202 -7.86736e-14 0)
(3.20202 -1.1673e-13 0)
(3.20202 -1.19534e-13 0)
(3.20202 -1.12256e-13 0)
(3.20202 -1.25312e-13 0)
(3.20202 -3.55861e-14 0)
(3.20202 2.45142e-14 0)
(3.20202 1.3599e-14 0)
(3.20202 -3.46226e-14 0)
(3.20202 2.02068e-14 0)
(3.20202 5.81967e-14 0)
(3.20202 6.57614e-14 0)
(3.20202 5.30325e-14 0)
(3.20202 8.50547e-14 0)
(3.20202 4.21639e-14 0)
(3.20202 -6.7375e-14 0)
(3.20202 -1.07499e-13 0)
(3.20202 -1.82071e-13 0)
(3.20202 -1.6778e-13 0)
(3.20202 1.81831e-14 0)
(3.20202 2.70047e-14 0)
(3.20202 -2.39708e-15 0)
(3.20202 -2.22772e-14 0)
(3.20202 -2.4821e-14 0)
(3.20202 5.96403e-14 0)
(3.20202 7.77934e-14 0)
(3.20202 9.40896e-14 0)
(3.20202 1.31589e-13 0)
(3.20202 1.42318e-13 0)
(3.20202 1.48609e-13 0)
(3.20202 8.8632e-14 0)
(3.20202 8.2961e-14 0)
(3.20202 1.77487e-13 0)
(3.20202 1.91366e-13 0)
(3.20202 1.81871e-13 0)
(3.20202 1.43051e-13 0)
(3.20202 9.0679e-14 0)
(3.20202 1.10752e-14 0)
(3.20202 1.77097e-14 0)
(3.20202 1.28889e-14 0)
(3.20202 -2.14004e-14 0)
(3.20202 -1.176e-13 0)
(3.20202 -1.94654e-13 0)
(3.20202 -2.03485e-13 0)
(3.20202 -1.53733e-13 0)
(3.20202 -1.34887e-13 0)
(3.20202 -1.25235e-13 0)
(3.20202 -1.88716e-13 0)
(3.20202 -2.23072e-13 0)
(3.20202 -5.33692e-14 0)
(3.20202 8.99889e-14 0)
(3.20202 1.1814e-13 0)
(3.20202 1.1604e-13 0)
(3.20202 9.73835e-14 0)
(3.20202 -1.21238e-13 0)
(3.20202 -2.54564e-13 0)
(3.20202 -2.29046e-13 0)
(3.20202 -2.07056e-13 0)
(3.20202 -1.48104e-13 0)
(3.20202 -1.49359e-14 0)
(3.20202 -2.49443e-14 0)
(3.20202 -1.01418e-14 0)
(3.20202 8.17808e-15 0)
(3.20202 1.7253e-14 0)
(3.20202 1.27822e-14 0)
(3.20202 7.98338e-14 0)
(3.20202 6.75417e-14 0)
(3.20202 6.44145e-14 0)
(3.20202 5.47495e-14 0)
(3.20202 4.04403e-14 0)
(3.20202 2.74514e-14 0)
(3.20202 5.94503e-14 0)
(3.20202 8.55848e-14 0)
(3.20202 3.88034e-14 0)
(3.20202 9.60499e-15 0)
(3.20202 -2.20705e-15 0)
(3.20202 -3.54094e-14 0)
(3.20202 -5.23557e-14 0)
(3.20202 -7.80768e-14 0)
(3.20202 -1.65302e-13 0)
(3.20202 -1.72303e-13 0)
(3.20202 -2.21198e-13 0)
(3.20202 -1.89726e-13 0)
(3.20202 -1.75184e-13 0)
(3.20202 -1.51516e-13 0)
(3.20202 -5.69932e-14 0)
(3.20202 -1.21021e-13 0)
(3.20202 -2.10806e-13 0)
(3.20202 -1.38744e-13 0)
(3.20202 -1.23668e-13 0)
(3.20202 -7.27559e-14 0)
(3.20202 7.82468e-15 0)
(3.20202 -1.58127e-14 0)
(3.20202 -2.00051e-13 0)
(3.20202 -2.26576e-13 0)
(3.20202 -1.93963e-13 0)
(3.20202 -2.07756e-13 0)
(3.20202 -2.09573e-13 0)
(3.20202 -5.51508e-14 0)
(3.20202 -3.20789e-14 0)
(3.20202 -4.10504e-14 0)
(3.20202 -4.0377e-14 0)
(3.20202 -1.89066e-14 0)
(3.20202 1.09786e-14 0)
(3.20202 -2.54377e-15 0)
(3.20202 -3.24656e-14 0)
(3.20202 -2.36941e-14 0)
(3.20202 -4.06504e-14 0)
(3.20202 -3.96102e-14 0)
(3.20202 -2.05202e-14 0)
(3.20202 -3.44526e-14 0)
(3.20202 -6.22407e-14 0)
(3.20202 -2.24839e-14 0)
(3.20202 -7.29959e-14 0)
(3.20202 -1.3475e-13 0)
(3.20202 -1.96984e-13 0)
(3.20202 -1.69536e-13 0)
(3.20202 -8.51514e-14 0)
(3.20202 -1.25835e-13 0)
(3.20202 -1.01034e-13 0)
(3.20202 -5.15756e-14 0)
(3.20202 -5.88068e-14 0)
(3.20202 -2.13137e-14 0)
(3.20202 6.39777e-15 0)
(3.20202 8.84153e-15 0)
(3.20202 -1.50526e-14 0)
(3.20202 -7.78101e-14 0)
(3.20202 -4.2664e-14 0)
(3.20202 -8.22709e-14 0)
(3.20202 -2.01171e-13 0)
(3.20202 -1.89483e-13 0)
(3.20202 -8.21875e-14 0)
(3.20202 -1.1373e-13 0)
(3.20202 -1.47275e-13 0)
(3.20202 -1.68329e-13 0)
(3.20202 -1.92703e-13 0)
(3.20202 -1.53133e-13 0)
(3.20202 -3.63029e-14 0)
(3.20202 7.78448e-15 0)
(3.20202 1.67996e-14 0)
(3.20202 4.24473e-14 0)
(3.20202 1.49559e-14 0)
(3.20202 -4.56612e-14 0)
(3.20202 -3.55895e-14 0)
(3.20202 -3.80132e-14 0)
(3.20202 -1.31053e-13 0)
(3.20202 -1.50513e-13 0)
(3.20202 -9.33361e-14 0)
(3.20202 -8.93121e-14 0)
(3.20202 -1.00057e-13 0)
(3.20202 -1.80468e-13 0)
(3.20202 -2.28133e-13 0)
(3.20202 -1.97354e-13 0)
(3.20202 -2.61385e-13 0)
(3.20202 -2.8843e-13 0)
(3.20202 -2.63742e-13 0)
(3.20202 -1.81845e-13 0)
(3.20202 -1.1845e-13 0)
(3.20202 -9.18825e-14 0)
(3.20202 3.87e-14 0)
(3.20202 1.05005e-13 0)
(3.20202 2.47876e-13 0)
(3.20202 2.41948e-13 0)
(3.20202 1.84295e-13 0)
(3.20202 5.44961e-14 0)
(3.20202 1.01384e-14 0)
(3.20202 4.02336e-14 0)
(3.20202 1.26829e-13 0)
(3.20202 1.09025e-13 0)
(3.20202 4.61746e-14 0)
(3.20202 -6.9612e-15 0)
(3.20202 -4.64247e-14 0)
(3.20202 -9.72968e-14 0)
(3.20202 -3.03152e-14 0)
(3.20202 -2.90017e-14 0)
(3.20202 -3.85333e-14 0)
(3.20202 1.25022e-14 0)
(3.20202 1.21448e-13 0)
(3.20202 3.75677e-14 0)
(3.20202 2.12837e-14 0)
(3.20202 4.90351e-14 0)
(3.20202 2.92384e-15 0)
(3.20202 -7.21725e-14 0)
(3.20202 -1.45115e-13 0)
(3.20202 -1.49399e-13 0)
(3.20202 -8.70917e-14 0)
(3.20202 -6.32876e-14 0)
(3.20202 -6.06738e-14 0)
(3.20202 -5.91502e-14 0)
(3.20202 -1.63972e-13 0)
(3.20202 -2.38044e-13 0)
(3.20202 -3.43076e-13 0)
(3.20202 -4.02089e-13 0)
(3.20202 -4.7988e-13 0)
(3.20202 -4.52131e-13 0)
(3.20202 -2.91817e-13 0)
(3.20202 -2.45512e-13 0)
(3.20202 -2.62332e-13 0)
(3.20202 -1.78504e-13 0)
(3.20202 -8.2991e-14 0)
(3.20202 -8.54481e-14 0)
(3.20202 2.37008e-14 0)
(3.20202 3.879e-14 0)
(3.20202 1.70563e-14 0)
(3.20202 9.92171e-15 0)
(3.20202 3.884e-15 0)
(3.20202 1.43992e-14 0)
(3.20202 7.00054e-14 0)
(3.20202 1.54333e-13 0)
(3.20202 1.5401e-13 0)
(3.20202 4.34542e-14 0)
(3.20202 4.58079e-15 0)
(3.20202 -1.28322e-14 0)
(3.20202 1.07118e-14 0)
(3.20202 4.62647e-14 0)
(3.20202 1.11769e-13 0)
(3.20202 1.02931e-13 0)
(3.20202 2.59545e-14 0)
(3.20202 5.47251e-14 0)
(3.20202 1.13453e-14 0)
(3.20202 -8.32477e-15 0)
(3.20202 3.81066e-15 0)
(3.20202 -2.56511e-14 0)
(3.20202 -8.41079e-14 0)
(3.20202 -1.22548e-13 0)
(3.20202 -2.32707e-14 0)
(3.20202 6.88819e-14 0)
(3.20202 7.28459e-15 0)
(3.20202 -3.4486e-14 0)
(3.20202 -4.70748e-14 0)
(3.20202 -3.16888e-14 0)
(3.20202 -1.13826e-13 0)
(3.20202 -2.02585e-13 0)
(3.20202 -1.66962e-13 0)
(3.20202 -1.30002e-13 0)
(3.20202 -1.00451e-13 0)
(3.20202 -1.26489e-13 0)
(3.20202 -4.56012e-14 0)
(3.20202 -5.37393e-14 0)
(3.20202 -7.65265e-14 0)
(3.20202 -8.76418e-14 0)
(3.20202 -8.4778e-14 0)
(3.20202 -4.09937e-14 0)
(3.20202 -4.60746e-15 0)
(3.20202 4.66047e-14 0)
(3.20202 2.95051e-14 0)
(3.20202 -5.80634e-14 0)
(3.20202 -4.38109e-14 0)
(3.20202 6.28975e-14 0)
(3.20202 7.98938e-14 0)
(3.20202 1.7271e-13 0)
(3.20202 1.32009e-13 0)
(3.20202 1.36534e-13 0)
(3.20202 9.30294e-14 0)
(3.20202 6.50479e-14 0)
(3.20202 2.27206e-14 0)
(3.20202 9.31394e-14 0)
(3.20202 5.48061e-14 0)
(3.20202 1.76695e-14 0)
(3.20202 -1.18354e-15 0)
(3.20202 -5.06854e-14 0)
(3.20202 -4.58813e-14 0)
(3.20202 -6.21774e-15 0)
(3.20202 -2.61979e-14 0)
(3.20202 -8.7085e-14 0)
(3.20202 -1.22768e-13 0)
(3.20202 -1.04398e-13 0)
(3.20202 -5.55396e-14 0)
(3.20202 -1.47759e-14 0)
(3.20202 -2.1087e-14 0)
(3.20202 4.4141e-15 0)
(3.20202 5.35126e-14 0)
(3.20202 8.55914e-14 0)
(3.20202 7.90737e-14 0)
(3.20202 2.26172e-14 0)
(3.20202 -3.56295e-14 0)
(3.20202 -1.17964e-13 0)
(3.20202 -4.51845e-14 0)
(3.20202 -6.77917e-14 0)
(3.20202 -6.19907e-14 0)
(3.20202 -5.3986e-14 0)
(3.20202 -9.76135e-14 0)
(3.20202 -6.7535e-14 0)
(3.20202 -1.66962e-14 0)
(3.20202 -2.26306e-14 0)
(3.20202 -3.78832e-14 0)
(3.20202 -3.24723e-14 0)
(3.20202 -3.40525e-14 0)
(3.20202 -2.77948e-14 0)
(3.20202 -1.78698e-14 0)
(3.20202 3.56095e-14 0)
(3.20202 1.73213e-13 0)
(3.20202 1.65469e-13 0)
(3.20202 1.18434e-13 0)
(3.20202 1.41324e-14 0)
(3.20202 -5.9577e-14 0)
(3.20202 -5.78066e-14 0)
(3.20202 -5.67865e-14 0)
(3.20202 -3.77804e-14 0)
(3.20202 -1.61128e-14 0)
(3.20202 -3.57128e-14 0)
(3.20202 -6.54913e-14 0)
(3.20202 -5.38026e-14 0)
(3.20202 -2.27939e-14 0)
(3.20202 -5.84668e-14 0)
(3.20202 -1.17527e-13 0)
(3.20202 -1.3756e-13 0)
(3.20202 -5.63664e-14 0)
(3.20202 -4.60313e-14 0)
(3.20202 -5.79167e-14 0)
(3.20202 -3.35125e-14 0)
(3.20202 7.41828e-14 0)
(3.20202 1.00807e-13 0)
(3.20202 7.09956e-14 0)
(3.20202 2.36307e-14 0)
(3.20202 -6.26542e-14 0)
(3.20202 -8.25676e-14 0)
(3.20202 -1.49989e-13 0)
(3.20202 -1.39647e-13 0)
(3.20202 -9.662e-14 0)
(3.20202 -1.14726e-13 0)
(3.20202 -1.60968e-13 0)
(3.20202 -1.32123e-13 0)
(3.20202 -5.83034e-14 0)
(3.20202 -4.56979e-14 0)
(3.20202 -3.37925e-14 0)
(3.20202 -4.33342e-14 0)
(3.20202 -9.06457e-14 0)
(3.20202 -1.1656e-13 0)
(3.20202 -1.26285e-13 0)
(3.20202 -9.34928e-14 0)
(3.20202 2.78448e-14 0)
(3.20202 5.51829e-14 0)
(3.20202 8.69784e-14 0)
(3.20202 8.39012e-14 0)
(3.20202 2.91384e-14 0)
(3.20202 2.21372e-14 0)
(3.20202 9.50831e-15 0)
(3.20202 5.95242e-15 0)
(3.20202 -7.84802e-15 0)
(3.20202 9.99173e-15 0)
(3.20202 3.29724e-15 0)
(3.20202 -5.22524e-14 0)
(3.20202 -2.75148e-14 0)
(3.20202 -1.66029e-15 0)
(3.20202 -1.91633e-14 0)
(3.20202 2.66479e-14 0)
(3.20202 -1.86766e-14 0)
(3.20202 -8.64983e-14 0)
(3.20202 -3.53861e-14 0)
(3.20202 3.93268e-14 0)
(3.20202 5.19356e-14 0)
(3.20202 2.87816e-14 0)
(3.20202 -8.93488e-15 0)
(3.20202 -3.72331e-14 0)
(3.20202 -1.01718e-13 0)
(3.20202 -1.04761e-13 0)
(3.20202 -9.74568e-14 0)
(3.20202 -4.35409e-15 0)
(3.20202 5.23157e-14 0)
(3.20202 1.15353e-14 0)
(3.20202 -2.56711e-16 0)
(3.20202 -2.41875e-14 0)
(3.20202 -5.39827e-14 0)
(3.20202 -1.1462e-14 0)
(3.20202 7.90136e-15 0)
(3.20202 -3.10587e-14 0)
(3.20202 -9.0899e-14 0)
(3.20202 -1.36224e-13 0)
(3.20202 -7.1159e-14 0)
(3.20202 2.64979e-14 0)
(3.20202 -9.34128e-14 0)
(3.20202 -1.29332e-13 0)
(3.20202 -4.58146e-14 0)
(3.20202 3.2729e-14 0)
(3.20202 9.74268e-14 0)
(3.20202 2.22388e-13 0)
(3.20202 1.9551e-13 0)
(3.20202 8.90974e-14 0)
(3.20202 -4.36409e-15 0)
(3.20202 1.22788e-14 0)
(3.20202 3.15755e-14 0)
(3.20202 6.5758e-14 0)
(3.20202 9.16825e-15 0)
(3.20202 6.17307e-14 0)
(3.20202 1.07882e-13 0)
(3.20202 1.19887e-13 0)
(3.20202 5.75499e-14 0)
(3.20202 3.75165e-14 0)
(3.20202 6.26842e-14 0)
(3.20202 6.34176e-14 0)
(3.20202 2.20605e-14 0)
(3.20202 -3.23823e-14 0)
(3.20202 8.25476e-15 0)
(3.20202 4.98919e-14 0)
(3.20202 3.78865e-14 0)
(3.20202 9.71168e-15 0)
(3.20202 -1.70363e-14 0)
(3.20202 4.22673e-14 0)
(3.20202 1.42138e-13 0)
(3.20202 1.11333e-13 0)
(3.20202 6.56347e-14 0)
(3.20202 -8.22209e-14 0)
(3.20202 -1.79278e-13 0)
(3.20202 -1.34883e-13 0)
(3.20202 -1.03625e-13 0)
(3.20202 -3.99069e-14 0)
(3.20202 -1.94834e-14 0)
(3.20202 -1.33356e-17 0)
(3.20202 -2.55411e-14 0)
(3.20202 -5.09221e-14 0)
(3.20202 -1.19087e-13 0)
(3.20202 -1.44678e-13 0)
(3.20202 -1.65805e-13 0)
(3.20202 -1.22728e-13 0)
(3.20202 -1.07682e-13 0)
(3.20202 -2.59411e-14 0)
(3.20202 1.1722e-14 0)
(3.20202 -3.56332e-14 0)
(3.20202 2.51377e-15 0)
(3.20202 3.16721e-16 0)
(3.20202 2.40775e-14 0)
(3.20202 9.51831e-14 0)
(3.20202 6.47512e-14 0)
(3.20202 7.79968e-14 0)
(3.20202 1.76987e-13 0)
(3.20202 1.68789e-13 0)
(3.20202 1.61838e-13 0)
(3.20202 1.69163e-13 0)
(3.20202 6.3741e-14 0)
(3.20202 -5.43494e-14 0)
(3.20202 -9.49531e-14 0)
(3.20202 -1.42258e-13 0)
(3.20202 -6.3601e-14 0)
(3.20202 -8.45479e-15 0)
(3.20202 2.39841e-14 0)
(3.20202 5.12088e-14 0)
(3.20202 -2.21372e-15 0)
(3.20202 -2.44442e-14 0)
(3.20202 -4.25473e-14 0)
(3.20202 -6.25541e-14 0)
(3.20202 -1.67059e-13 0)
(3.20202 -1.99231e-13 0)
(3.20202 -1.98898e-13 0)
(3.20202 -1.9502e-13 0)
(3.20202 -1.97511e-13 0)
(3.20202 -1.41608e-13 0)
(3.20202 -3.99302e-14 0)
(3.20202 -7.46529e-14 0)
(3.20202 -1.55454e-13 0)
(3.20202 -2.94107e-13 0)
(3.20202 -1.955e-13 0)
(3.20202 -1.20117e-13 0)
(3.20202 -1.7163e-14 0)
(3.20202 4.25473e-14 0)
(3.20202 4.82983e-14 0)
(3.20202 -1.29422e-14 0)
(3.20202 -6.53113e-15 0)
(3.20202 -6.36427e-14 0)
(3.20202 3.47727e-14 0)
(3.20202 7.12956e-14 0)
(3.20202 5.73666e-14 0)
(3.20202 1.27355e-15 0)
(3.20202 9.69501e-15 0)
(3.20202 2.46909e-14 0)
(3.20202 3.61696e-14 0)
(3.20202 -5.74099e-15 0)
(3.20202 6.29142e-14 0)
(3.20202 8.14141e-14 0)
(3.20202 1.03888e-13 0)
(3.20202 2.79682e-14 0)
(3.20202 9.55832e-15 0)
(3.20202 9.28827e-15 0)
(3.20202 -9.71834e-15 0)
(3.20202 -5.60563e-14 0)
(3.20202 -3.839e-14 0)
(3.20202 -7.75134e-15 0)
(3.20202 -5.95703e-14 0)
(3.20202 -1.33286e-13 0)
(3.20202 -2.54584e-13 0)
(3.20202 -2.73924e-13 0)
(3.20202 -1.93037e-13 0)
(3.20202 -1.36077e-13 0)
(3.20202 -6.52813e-14 0)
(3.20202 -2.03162e-13 0)
(3.20202 -2.3104e-13 0)
(3.20202 -2.61962e-13 0)
(3.20202 -2.41858e-13 0)
(3.20202 -2.17431e-13 0)
(3.20202 -2.20418e-13 0)
(3.20202 -1.84709e-13 0)
(3.20202 -1.88303e-13 0)
(3.20202 -1.92227e-13 0)
(3.20202 -1.5286e-13 0)
(3.20202 -5.80134e-14 0)
(3.20202 6.67449e-15 0)
(3.20202 -4.8535e-14 0)
(3.20202 -1.67686e-13 0)
(3.20202 -2.26758e-13 0)
(3.20202 -4.80416e-15 0)
(3.20202 3.68464e-14 0)
(3.20202 5.28825e-14 0)
(3.20202 4.98053e-14 0)
(3.20202 7.85569e-14 0)
(3.20202 1.14066e-13 0)
(3.20202 2.4911e-14 0)
(3.20202 -8.7015e-15 0)
(3.20202 -9.01856e-14 0)
(3.20202 -6.42844e-14 0)
(3.20202 3.4576e-14 0)
(3.20202 1.90099e-14 0)
(3.20202 2.49876e-14 0)
(3.20202 7.81668e-14 0)
(3.20202 9.57099e-14 0)
(3.20202 5.11822e-14 0)
(3.20202 -9.24693e-14 0)
(3.20202 -1.1796e-13 0)
(3.20202 -1.55417e-13 0)
(3.20202 -2.21822e-13 0)
(3.20202 -2.39138e-13 0)
(3.20202 -2.40855e-13 0)
(3.20202 -1.43278e-13 0)
(3.20202 -1.37887e-13 0)
(3.20202 -1.55424e-13 0)
(3.20202 -1.24141e-13 0)
(3.20202 -1.98234e-13 0)
(3.20202 -3.2577e-13 0)
(3.20202 -3.21959e-13 0)
(3.20202 -2.65849e-13 0)
(3.20202 -1.76641e-13 0)
(3.20202 -1.13983e-13 0)
(3.20202 -1.90049e-13 0)
(3.20202 -2.28663e-13 0)
(3.20202 -2.61435e-13 0)
(3.20202 -1.5586e-13 0)
(3.20202 -1.938e-13 0)
(3.20202 -2.61969e-13 0)
(3.20202 -3.58865e-13 0)
(3.20202 -3.4471e-13 0)
(3.20202 9.36828e-16 0)
(3.20202 9.2716e-15 0)
(3.20202 1.64428e-14 0)
(3.20202 3.37058e-14 0)
(3.20202 2.78681e-14 0)
(3.20202 3.17288e-14 0)
(3.20202 -5.9977e-14 0)
(3.20202 -1.12163e-13 0)
(3.20202 -1.25255e-13 0)
(3.20202 -1.31609e-13 0)
(3.20202 -9.21159e-14 0)
(3.20202 -9.57399e-14 0)
(3.20202 -7.27592e-14 0)
(3.20202 -4.77116e-14 0)
(3.20202 2.11036e-15 0)
(3.20202 -1.78831e-14 0)
(3.20202 -6.7275e-14 0)
(3.20202 -1.95214e-13 0)
(3.20202 -2.38918e-13 0)
(3.20202 -2.53807e-13 0)
(3.20202 -1.68476e-13 0)
(3.20202 -1.43578e-13 0)
(3.20202 -1.66022e-13 0)
(3.20202 -1.54207e-13 0)
(3.20202 -1.38407e-13 0)
(3.20202 -1.00851e-13 0)
(3.20202 -6.9292e-14 0)
(3.20202 -1.04361e-13 0)
(3.20202 -2.25389e-13 0)
(3.20202 -2.44669e-13 0)
(3.20202 -1.60861e-13 0)
(3.20202 -1.41858e-13 0)
(3.20202 -2.03592e-13 0)
(3.20202 -3.59015e-13 0)
(3.20202 -3.8791e-13 0)
(3.20202 -4.16499e-13 0)
(3.20202 -4.76099e-13 0)
(3.20202 -4.41096e-13 0)
(3.20202 -3.64376e-13 0)
(3.20202 -2.70363e-13 0)
(3.20202 -2.47376e-15 0)
(3.20202 -3.4816e-14 0)
(3.20202 -3.53661e-14 0)
(3.20202 -3.06986e-14 0)
(3.20202 -1.16617e-13 0)
(3.20202 -1.91623e-13 0)
(3.20202 -1.54193e-13 0)
(3.20202 -1.41168e-13 0)
(3.20202 -5.14122e-14 0)
(3.20202 1.74897e-14 0)
(3.20202 -3.96402e-15 0)
(3.20202 -3.16955e-14 0)
(3.20202 -1.5286e-13 0)
(3.20202 -1.58117e-13 0)
(3.20202 -2.13584e-13 0)
(3.20202 -2.08776e-13 0)
(3.20202 -2.00318e-13 0)
(3.20202 -2.43589e-13 0)
(3.20202 -2.89463e-13 0)
(3.20202 -2.8762e-13 0)
(3.20202 -2.23759e-13 0)
(3.20202 -2.02625e-13 0)
(3.20202 -2.73717e-13 0)
(3.20202 -2.47723e-13 0)
(3.20202 -1.86242e-13 0)
(3.20202 -1.78081e-13 0)
(3.20202 -9.11191e-14 0)
(3.20202 -6.84151e-14 0)
(3.20202 -9.20826e-14 0)
(3.20202 -1.27365e-13 0)
(3.20202 -1.09289e-13 0)