/*--------------------------------*- C++ -*----------------------------------*\
| =========                 |                                                 |
| \\      /  F ield         | OpenFOAM: The Open Source CFD Toolbox           |
|  \\    /   O peration     | Version:  2206                                  |
|   \\  /    A nd           | Website:  www.openfoam.com                      |
|    \\/     M anipulation  |                                                 |
\*---------------------------------------------------------------------------*/
FoamFile
{
    version     2.0;
    format      ascii;
    arch        "LSB;label=32;scalar=64";
    class       volScalarField;
    location    "0.06";
    object      p;
}
// * * * * * * * * * * * * * * * * * * * * * * * * * * * * * * * * * * * * * //

dimensions      [1 -1 -2 0 0 0 0];

internalField   nonuniform List<scalar> 
4800
(
1
1
1
1
1
1
1
1
1
1
1
1
1
1
1
1
1
1
1
1
1
1
1
1
1
1
1
1
1
1
1
1
1
1
1
1
1
1
1
1
1
1
1
1
1
1
1
1
1
1
1
1
1
1
1
1
1
1
1
1
1
1
1
1
1
1
1
1
1
1
1
1
1
1
1
1
1
1
1
1
1
1
1
1
1
1
1
1
1
1
1
1
1
1
1
1
1
1
1
1
1
1
1
1
1
1
1
1
1
1
1
1
1
1
1
1
1
1
1
1
1
1
1
1
1
1
1
1
1
1
1
1
1
1
1
1
1
1
1
1
1
1
1
1
1
1
1
1
1
1
1
1
1
1
1
1
1
1
1
1
1
1
1
1
1
1
1
1
1
1
1
1
1
1
1
1
1
1
1
1
1
1
1
1
1
1
1
1
1
1
1
1
1
1
1
1
1
1
1
1
1
1
1
1
1
1
1
1
1
1
1
1
1
1
1
1
1
1
1
1
1
1
1
1
1
1
1
1
1
1
1
1
1
1
1
1
1
1
1
1
1
1
1
1
1
1
1
1
1
1
1
1
1
1
1
1
1
1
1
1
1
1
1
1
1
1
1
1
1
1
1
1
1
1
1
1
1
1
1
1
1
1
1
1
1
1
1
1
1
1
1
1
1
1
1
1
1
1
1
1
1
1
1
1
1
1
1
1
1
1
1
1
1
1
1
1
1
1
1
1
1
1
1
1
1
1
1
1
1
1
1
1
1
1
1
1
1
1
1
1
1
1
1
1
1
1
1
1
1
1
1
1
1
1
1
1
1
1
1
1
1
1
1
1
1
1
1
1
1
1
1
1
1
1
1
1
1
1
1
1
1
1
1
1
1
1
1
1
1
1
1
1
1
1
1
1
1
1
1
1
1
1
1
1
1
1
1
1
1
1
1
1
1
1
1
1
1
1
1
1
1
1
1
1
1
1
1
1
1
1
1
1
1
1
1
1
1
1
1
1
1
1
1
1
1
1
1
1
1
1
1
1
1
1
1
1
1
1
1
1
1
1
1
1
1
1
1
1
1
1
1
1
1
1
1
1
1
1
1
1
1
1
1
1
1
1
1
1
1
1
1
1
1
1
1
1
1
1
1
1
1
1
1
1
1
1
1
1
1
1
1
1
1
1
1
1
1
1
1
1
1
1
1
1
1
1
1
1
1
1
1
1
1
1
1
1
1
1
1
1
1
1
1
1
1
1
1
1
1
1
1
1
1
1
1
1
1
1
1
1
1
1
1
1
1
1
1
1
1
1
1
1
1
1
1
1
1
1
1
1
1
1
1
1
1
1
1
1
1
1
1
1
1
1
1
1
1
1
1
1
1
1
1
1
1
1
1
1
1
1
1
1
1
1
1
1
1
1
1
1
1
1
1
1
1
1
1
1
1
1
1
1
1
1
1
1
1
1
1
1
1
1
1
1
1
1
1
1
1
1
1
1
1
1
1
1
1
1
1
1
1
1
1
1
1
1
1
1
1
1
1
1
1
1
1
1
1
1
1
1
1
1
1
1
1
1
1
1
1
1
1
1
1
1
1
1
1
1
1
1
1
1
1
1
1
1
1
1
1
1
1
1
1
1
1
1
1
1
1
1
1
1
1
1
1
1
1
1
1
1
1
1
1
1
1
1
1
1
1
1
1
1
1
1
1
1
1
1
1
1
1
1
1
1
1
1
1
1
1
1
1
1
1
1
1
1
1
1
1
1
1
1
1
1
1
1
1
1
1
1
1
1
1
1
1
1
1
1
1
1
1
1
1
1
1
1
1
1
1
1
1
1
1
1
1
1
1
1
1
1
1
1
1
1
1
1
1
1
1
1
1
1
1
1
1
1
1
1
1
1
1
1
1
1
1
1
1
1
1
1
1
1
1
1
1
1
1
1
1
1
1
1
1
1
1
1
1
1
1
1
1
1
1
1
1
1
1
1
1
1
1
1
1
1
1
1
1
1
1
1
1
1
1
1
1
1
1
1
1
1
1
1
1
1
1
1
1
1
1
1
1
1
1
1
1
1
1
1
1
1
1
1
1
1
1
1
1
1
1
1
1
1
1
1
1
1
1
1
1
1
1
1
1
1
1
1
1
1
1
1
1
1
1
1
1
1
1
1
1
1
1
1
1
1
1
1
1
1
1
1
1
1
1
1
1
1
1
1
1
1
1
1
1
1
1
1
1
1
1
1
1
1
1
1
1
1
1
1
1
1
1
1
1
1
1
1
1
1
1
1
1
1
1
1
1
1
1
1
1
1
1
1
1
1
1
1
1
1
1
1
1
1
1
1
1
1
1
1
1
1
1
1
1
1
1
1
1
1
1
1
1
1
1
1
1
1
1
1
1
1
1
1
1
1
1
1
1
1
1
1
1
1
1
1
1
1
1
1
1
1
1
1
1
1
1
1
1
1
1
1
1
1
1
1
1
1
1
1
1
1
1
1
1
1
1
1
1
1
1
1
1
1
1
1
1
1
1
1
1
1
1
1
1
1
1
1
1
1
1
1
1
1
1
1
1
1
1
1
1
1
1
1
1
1
1
1
1
1
1
1
1
1
1
1
1
1
1
1
1
1
1
1
1
1
1
1
1
1
1
1
1
1
1
1
1
1
1
1
1
1
1
1
1
1
1
1
1
1
1
1
1
1
1
1
1
1
1
1
1
1
1
1
1
1
1
1
1
1
1
1
1
1
1
1
1
1
1
1
1
1
1
1
1
1
1
1
1
1
1
1
1
1
1
1
1
1
1
1
1
1
1
1
1
1
1
1
1
1
1
1
1
1
1
1
1
1
1
1
1
1
1
1
1
1
1
1
1
1
1
1
1
1
1
1
1
1
1
1
1
1
1
1
1
1
1
1
1
1
1
1
1
1
1
1
1
1
1
1
1
1
1
1
1
1
1
1
1
1
1
1
1
1
1
1
1
1
1
1
1
1
1
1
1
1
1
1
1
1
1
1
1
1
1
1
1
1
1
1
1
1
1
1
1
1
1
1
1
1
1
1
1
1
1
1
1
1
1
1
1
1
1
1
1
1
1
1
1
1
1
1
1
1
1
1
1
1
1
1
1
1
1
1
1
1
1
1
1
1
1
1
1
1
1
1
1
1
1
1
1
1
1
1
1
1
1
1
1
1
1
1
1
1
1
1
1
1
1
1
1
1
1
1
1
1
1
1
1
1
1
1
1
1
1
1
1
1
1
1
1
1
1
1
1
1
1
1
1
1
1
1
1
1
1
1
1
1
1
1
1
1
1
1
1
1
1
1
1
1
1
1
1
1
1
1
1
1
1
1
1
1
1
1
1
1
1
1
1
1
1
1
1
1
1
1
1
1
1
1
1
1
1
1
1
1
1
1
1
1
1
1
1
1
1
1
1
1
1
1
1
1
1
1
1
1
1
1
1
1
1
1
1
1
1
1
1
1
1
1
1
1
1
1
1
1
1
1
1
1
1
1
1
1
1
1
1
1
1
1
1
1
1
1
1
1
1
1
1
1
1
1
1
1
1
1
1
1
1
1
1
1
1
1
1
1
1
1
1
1
1
1
1
1
1
1
1
1
1
1
1
1
1
1
1
1
1
1
1
1
1
1
1.27165
1.68946
2.18407
2.73574
3.1707
3.65899
4.16151
4.35092
4.53655
4.56102
4.47174
4.22368
3.88253
3.53232
3.39239
3.32245
3.23179
3.21022
3.22628
3.2751
3.32287
3.35183
3.34503
3.33443
3.33475
3.3501
3.37818
3.39767
3.40249
3.40169
3.39687
3.38608
3.37477
3.35986
3.33751
3.31075
3.28151
3.24962
3.22128
3.20198
3.18593
3.17404
3.16804
3.16253
3.15737
3.15321
3.14967
3.14602
3.1421
3.14324
3.14977
3.15461
3.1546
3.15216
3.15031
3.14955
3.15093
3.15332
3.15764
3.16153
3.16382
3.16502
3.16621
3.16828
3.17172
3.17627
3.18178
3.19003
3.20428
3.22815
3.26249
3.29336
3.30327
3.30372
3.30352
3.30316
3.30247
3.30161
3.30139
3.30154
1.00329
1.02255
1.06969
1.17379
1.3832
1.60638
1.95713
2.33924
2.70842
3.05831
3.32748
3.44873
3.55072
3.59973
3.60372
3.55357
3.47997
3.43405
3.39671
3.38657
3.36043
3.33108
3.32061
3.31935
3.33065
3.35667
3.38201
3.38957
3.388
3.38255
3.37303
3.36352
3.35818
3.34755
3.32482
3.29437
3.26503
3.2362
3.20976
3.19269
3.17681
3.1672
3.16316
3.15899
3.15445
3.14982
3.14448
3.13875
3.13365
3.13324
3.13789
3.14288
3.14471
3.14351
3.14271
3.14296
3.14575
3.15198
3.15627
3.1586
3.16022
3.1625
3.16586
3.16939
3.17371
3.17899
3.18545
3.1947
3.20977
3.2348
3.26898
3.29569
3.30289
3.30317
3.30305
3.30282
3.30242
3.30204
3.302
3.30217
0.999998
1.00002
1.00002
1.00036
1.00333
1.01258
1.05024
1.15145
1.36156
1.752
2.33637
3.07497
3.42155
3.75037
3.81553
3.80244
3.74529
3.6549
3.5315
3.38617
3.35332
3.33025
3.32323
3.33678
3.35868
3.37503
3.3829
3.38432
3.38127
3.37546
3.36696
3.3599
3.35664
3.34637
3.32117
3.28659
3.25445
3.22778
3.20298
3.18725
3.17722
3.17169
3.1684
3.16497
3.16111
3.15648
3.14935
3.14175
3.13518
3.13522
3.14375
3.15127
3.15014
3.14485
3.14292
3.14492
3.14843
3.15283
3.1565
3.15867
3.16077
3.16347
3.16652
3.17026
3.17442
3.17906
3.18592
3.19589
3.21121
3.23732
3.27319
3.29839
3.30385
3.30402
3.30395
3.30372
3.30321
3.30266
3.3025
3.30238
1
1
1
1
0.999999
1.00001
1
1.00029
1.00271
1.02047
1.1079
1.4007
1.93035
2.5912
3.17165
3.42004
3.55619
3.51238
3.49448
3.51251
3.52034
3.49504
3.4306
3.39993
3.37449
3.36818
3.36521
3.36386
3.3668
3.36787
3.37228
3.37112
3.36448
3.3462
3.31263
3.27105
3.23611
3.21219
3.19121
3.17907
3.17678
3.17438
3.17066
3.16668
3.1626
3.15773
3.15109
3.14386
3.1358
3.13214
3.14226
3.15429
3.14893
3.14053
3.13772
3.14105
3.14951
3.15338
3.15588
3.1581
3.16067
3.16346
3.16643
3.16964
3.17238
3.17758
3.18566
3.19737
3.21528
3.24403
3.28005
3.30103
3.30407
3.30422
3.30415
3.30381
3.30286
3.30225
3.30212
3.30197
1
1
1
1
1
1
1
1
1
0.99999
1.00009
1.00324
1.04202
1.17074
1.58876
2.17627
2.86028
3.24626
3.50087
3.64617
3.62422
3.59697
3.5301
3.41905
3.34031
3.34787
3.36489
3.36901
3.37055
3.37378
3.37579
3.37162
3.35737
3.33601
3.3094
3.27618
3.24053
3.21211
3.18976
3.17663
3.17041
3.16582
3.16167
3.15824
3.15667
3.15381
3.15125
3.14907
3.14436
3.1405
3.14688
3.15452
3.14976
3.14404
3.14138
3.14531
3.1532
3.15291
3.15312
3.1549
3.15763
3.1611
3.16485
3.1685
3.17416
3.17986
3.18679
3.19859
3.21939
3.25122
3.28621
3.30234
3.30384
3.30396
3.30383
3.30327
3.30196
3.30159
3.30165
3.30182
1
1
1
1
1
1
1
1
1
0.999999
0.999999
1
0.999999
1.00044
1.01173
1.08772
1.29965
1.82634
2.40374
3.07008
3.26038
3.40696
3.38274
3.37285
3.3873
3.41506
3.43264
3.42091
3.3925
3.36977
3.36104
3.35186
3.33107
3.31248
3.30039
3.28277
3.25493
3.22346
3.19628
3.17852
3.16806
3.15923
3.15349
3.14924
3.14516
3.14723
3.14989
3.14708
3.14103
3.13779
3.14566
3.1513
3.14554
3.14071
3.14021
3.14889
3.1545
3.15121
3.15225
3.15547
3.15856
3.16291
3.16817
3.17332
3.17799
3.18329
3.19031
3.20236
3.22391
3.25694
3.28953
3.30225
3.30321
3.30325
3.3031
3.30249
3.30139
3.30126
3.30158
3.30219
1
1
1
1
1
1
1
1
1
1
1
1
0.999999
0.999999
0.999991
1.00012
1.00216
1.03541
1.15585
1.48657
2.06518
2.67133
3.18132
3.35441
3.4888
3.49649
3.48685
3.45611
3.36134
3.32451
3.32957
3.33891
3.33245
3.3127
3.2879
3.26665
3.24373
3.22063
3.20214
3.18687
3.1666
3.15495
3.14829
3.14328
3.14265
3.14266
3.14239
3.1385
3.1318
3.13071
3.14173
3.14554
3.13987
3.13434
3.13569
3.15041
3.1528
3.14921
3.15079
3.15438
3.15728
3.16123
3.16699
3.17325
3.17954
3.18578
3.19421
3.20709
3.22912
3.26267
3.29248
3.30184
3.3024
3.30242
3.30234
3.30193
3.30131
3.30141
3.30182
3.30231
1
1
1
1
1
1
1
1
1
1
1
1
1
1
1
0.999999
0.999998
1.00001
1.00059
1.00848
1.08507
1.27512
1.7715
2.36676
2.98265
3.24222
3.3511
3.33659
3.3436
3.34827
3.36458
3.3695
3.35744
3.32625
3.27447
3.22895
3.20759
3.19488
3.1834
3.17815
3.17669
3.17003
3.16062
3.15138
3.14262
3.13585
3.13352
3.1285
3.12097
3.1226
3.13154
3.13296
3.13057
3.13226
3.14188
3.14734
3.14371
3.14273
3.14585
3.15016
3.15391
3.15892
3.16449
3.17064
3.17697
3.18528
3.19601
3.21112
3.23563
3.27013
3.29611
3.30194
3.30225
3.30238
3.30248
3.30225
3.30161
3.30167
3.30196
3.30204
1
1
1
1
1
1
1
1
1
1
1
1
1
1
1
1
1
1
1
0.999992
1.0002
1.00261
1.03539
1.18728
1.52286
2.07369
2.67321
3.14795
3.30187
3.43126
3.43337
3.4124
3.37904
3.31312
3.2461
3.19724
3.17294
3.16585
3.16494
3.17012
3.16762
3.15529
3.14309
3.13392
3.12651
3.12367
3.12564
3.12692
3.12673
3.13203
3.13676
3.13576
3.13335
3.1337
3.1437
3.14607
3.14428
3.14556
3.14803
3.15161
3.15424
3.15563
3.15954
3.16633
3.17444
3.18411
3.19637
3.21482
3.24314
3.27749
3.29932
3.3034
3.30349
3.30339
3.30307
3.30217
3.3012
3.30099
3.30113
3.30128
1
1
1
1
1
1
1
1
1
1
1
1
1
1
1
1
1
1
1
0.999999
1
0.999996
1.00003
1.00128
1.01241
1.10554
1.32987
1.85116
2.41333
3.01943
3.28419
3.30277
3.32313
3.3091
3.25064
3.22296
3.19972
3.17237
3.15557
3.1515
3.14439
3.13042
3.1211
3.11758
3.11682
3.12199
3.12865
3.13356
3.13679
3.13453
3.13154
3.12795
3.12615
3.13006
3.13961
3.13954
3.14029
3.14415
3.14723
3.15048
3.15423
3.15711
3.16093
3.16813
3.17738
3.1872
3.20101
3.22266
3.25338
3.28583
3.30281
3.30488
3.30445
3.30361
3.30255
3.3011
3.29994
3.29959
3.29965
3.30006
1
1
1
1
1
1
1
1
1
1
1
1
1
1
1
1
1
1
1
1
1
1
1
1
0.999995
1.00048
1.00505
1.05445
1.25331
1.66636
2.26958
2.7865
3.20549
3.29547
3.2755
3.25118
3.21819
3.16998
3.12771
3.11746
3.11551
3.12003
3.12511
3.12669
3.12841
3.13033
3.12871
3.12466
3.12404
3.12261
3.11925
3.11672
3.11638
3.12539
3.1318
3.13393
3.13988
3.14775
3.15267
3.15479
3.15693
3.15899
3.16229
3.16994
3.1812
3.19391
3.20929
3.23085
3.26054
3.28991
3.30267
3.30373
3.3034
3.30257
3.30135
3.30015
3.2995
3.2993
3.2994
3.29997
1
1
1
1
1
1
1
1
1
1
1
1
1
1
1
1
1
1
1
1
1
1
1
1
1
1
0.999996
1.00015
1.0034
1.02755
1.18585
1.53248
2.08696
2.62552
2.95267
3.1739
3.17219
3.12134
3.11523
3.10603
3.11613
3.14422
3.15137
3.14213
3.12936
3.11973
3.11177
3.10524
3.10229
3.10161
3.10155
3.10396
3.11116
3.12216
3.13293
3.13431
3.13755
3.14347
3.14872
3.1527
3.15522
3.15782
3.16083
3.16894
3.18117
3.19519
3.21227
3.23591
3.26734
3.29392
3.30214
3.30275
3.30311
3.30344
3.30304
3.30229
3.30196
3.30185
3.30139
3.30081
1
1
1
1
1
1
1
1
1
1
1
1
1
1
1
1
1
1
1
1
1
1
1
1
1
1
0.999999
1
0.999997
1.00003
1.002
1.01902
1.11565
1.43115
1.90489
2.43184
2.77843
2.9971
3.10221
3.09455
3.09775
3.1205
3.1276
3.11731
3.09171
3.08077
3.07907
3.08334
3.08886
3.09871
3.10791
3.11579
3.12278
3.12621
3.12902
3.12693
3.1271
3.13173
3.13827
3.14462
3.14849
3.15164
3.15805
3.16904
3.18201
3.19749
3.21841
3.24654
3.27942
3.30088
3.3049
3.30481
3.30432
3.30375
3.30252
3.30108
3.30065
3.30078
3.30072
3.30033
1
1
1
1
1
1
1
1
1
1
1
1
1
1
1
1
1
1
1
1
1
1
1
1
1
1
1
1
1
1
0.999998
1.00001
1.00095
1.0116
1.08534
1.28156
1.67979
2.12168
2.56147
2.77105
2.89012
3.01819
3.01997
3.02761
3.04107
3.05636
3.08719
3.10898
3.11944
3.12424
3.12325
3.11825
3.11432
3.11505
3.11424
3.11259
3.11473
3.11845
3.12495
3.13329
3.13874
3.14543
3.1574
3.17189
3.18857
3.20826
3.23238
3.26204
3.29154
3.30523
3.30607
3.30525
3.30366
3.30172
3.29984
3.29832
3.29803
3.29847
3.29927
3.30034
1
1
1
1
1
1
1
1
1
1
1
1
1
1
1
1
1
1
1
1
1
1
1
1
1
1
1
1
1
1
1
1
0.999999
1
1.00052
1.00536
1.04074
1.16096
1.4111
1.81659
2.18084
2.54395
2.76528
2.9717
3.02944
3.06622
3.10729
3.10756
3.10805
3.10663
3.0969
3.081
3.0803
3.08608
3.09503
3.10245
3.11388
3.1243
3.13492
3.14481
3.14754
3.15131
3.16045
3.17379
3.19133
3.21411
3.24034
3.27022
3.29495
3.30318
3.30403
3.30406
3.30332
3.30173
3.30092
3.3005
3.29992
3.29959
3.29995
3.30069
1
1
1
1
1
1
1
1
1
1
1
1
1
1
1
1
1
1
1
1
1
1
1
1
1
1
1
1
1
1
1
1
1
1
1
0.999999
1.00013
1.00191
1.01339
1.06621
1.20353
1.45069
1.82724
2.20585
2.53652
2.74411
2.94952
2.9655
2.9825
3.00458
3.02356
3.05341
3.07544
3.10015
3.12253
3.12748
3.13407
3.13815
3.14026
3.14449
3.14598
3.15087
3.15973
3.17071
3.18637
3.21164
3.24457
3.27582
3.2929
3.29852
3.30162
3.30303
3.30351
3.30307
3.30273
3.30319
3.30318
3.30192
3.30071
3.30007
1
1
1
1
1
1
1
1
1
1
1
1
1
1
1
1
1
1
1
1
1
1
1
1
1
1
1
1
1
1
1
1
1
1
1
1
1
1
1.00001
1.00036
1.0032
1.01722
1.07782
1.21048
1.48606
1.8217
2.19935
2.54263
2.76534
2.94971
3.00902
3.08135
3.10596
3.1081
3.12259
3.11879
3.11455
3.11258
3.11731
3.12441
3.13155
3.14397
3.16111
3.17692
3.1957
3.22515
3.26158
3.28907
3.30063
3.30316
3.30349
3.30398
3.30336
3.30116
3.2996
3.29987
3.30014
3.30018
3.29992
3.30014
1
1
1
1
1
1
1
1
1
1
1
1
1
1
1
1
1
1
1
1
1
1
1
1
1
1
1
1
1
1
1
1
1
1
1
1
1
1
1
1
1
1.00003
1.00053
1.00372
1.02018
1.07921
1.21085
1.48595
1.82633
2.2134
2.5196
2.76664
2.90469
2.94981
3.02639
3.02705
3.04082
3.06475
3.09283
3.11457
3.14363
3.16615
3.18609
3.21166
3.23376
3.25667
3.2828
3.30079
3.30439
3.30284
3.29941
3.29773
3.29727
3.29599
3.29427
3.29483
3.29626
3.29759
3.29856
3.29999
1
1
1
1
1
1
1
1
1
1
1
1
1
1
1
1
1
1
1
1
1
1
1
1
1
1
1
1
1
1
1
1
1
1
1
1
1
1
1
1
1
1
1
1
1.00004
1.00056
1.00387
1.02161
1.08287
1.21867
1.4967
1.81928
2.2199
2.5131
2.76799
2.92529
3.02648
3.08023
3.11567
3.13712
3.16172
3.17415
3.18191
3.2083
3.23358
3.24883
3.26203
3.27909
3.29301
3.29213
3.288
3.28797
3.29034
3.29264
3.29429
3.29507
3.29651
3.29846
3.3002
3.30028
1
1
1
1
1
1
1
1
1
1
1
1
1
1
1
1
1
1
1
1
1
1
1
1
1
1
1
1
1
1
1
1
1
1
1
1
1
1
1
1
1
1
1
1
1
1
1
1.00005
1.00064
1.00432
1.02306
1.08237
1.22456
1.4944
1.81293
2.20228
2.51011
2.76663
2.91591
2.99532
3.06628
3.11345
3.11594
3.14846
3.20298
3.22988
3.24795
3.26768
3.28791
3.29818
3.29842
3.29849
3.29826
3.3004
3.30077
3.29877
3.29523
3.2956
3.29687
3.29768
1
1
1
1
1
1
1
1
1
1
1
1
1
1
1
1
1
1
1
1
1
1
1
1
1
1
1
1
1
1
1
1
1
1
1
1
1
1
1
1
1
1
1
1
1
1
1
1
1
1
1.00006
1.00066
1.00464
1.02365
1.08126
1.22376
1.47558
1.81216
2.17262
2.52423
2.73378
2.95181
3.06848
3.12398
3.19904
3.25081
3.27913
3.29294
3.30685
3.31255
3.30907
3.29968
3.29007
3.28961
3.2923
3.2912
3.28615
3.28574
3.28768
3.29271
1
1
1
1
1
1
1
1
1
1
1
1
1
1
1
1
1
1
1
1
1
1
1
1
1
1
1
1
1
1
1
1
1
1
1
1
1
1
1
1
1
1
1
1
1
1
1
1
1
1
1
1
1
1.00007
1.00067
1.00468
1.02221
1.07837
1.21242
1.44529
1.7761
2.10768
2.46246
2.72193
2.91913
3.04342
3.17612
3.21078
3.21768
3.25093
3.25465
3.25848
3.256
3.25889
3.27219
3.28341
3.28935
3.29087
3.29276
3.29513
1
1
1
1
1
1
1
1
1
1
1
1
1
1
1
1
1
1
1
1
1
1
1
1
1
1
1
1
1
1
1
1
1
1
1
1
1
1
1
1
1
1
1
1
1
1
1
1
1
1
1
1
1
1
1
1
1.00006
1.00063
1.00415
1.01907
1.06688
1.17479
1.37707
1.65379
1.96509
2.30936
2.5845
2.84417
2.99176
3.1205
3.18482
3.24678
3.26839
3.27706
3.28915
3.29857
3.30338
3.302
3.29441
3.29091
1
1
1
1
1
1
1
1
1
1
1
1
1
1
1
1
1
1
1
1
1
1
1
1
1
1
1
1
1
1
1
1
1
1
1
1
1
1
1
1
1
1
1
1
1
1
1
1
1
1
1
1
1
1
1
1
1
1
1
1.00005
1.00045
1.00273
1.01252
1.04184
1.11
1.24557
1.45815
1.73886
2.07633
2.39949
2.71517
2.91145
3.09427
3.17311
3.21914
3.23436
3.24895
3.2636
3.26833
3.27053
1
1
1
1
1
1
1
1
1
1
1
1
1
1
1
1
1
1
1
1
1
1
1
1
1
1
1
1
1
1
1
1
1
1
1
1
1
1
1
1
1
1
1
1
1
1
1
1
1
1
1
1
1
1
1
1
1
1
1
1
1
1
1.00002
1.00018
1.00105
1.00485
1.01762
1.05413
1.14341
1.31383
1.5876
1.93626
2.30478
2.65045
2.89704
3.08761
3.17247
3.2388
3.27294
3.28086
1
1
1
1
1
1
1
1
1
1
1
1
1
1
1
1
1
1
1
1
1
1
1
1
1
1
1
1
1
1
1
1
1
1
1
1
1
1
1
1
1
1
1
1
1
1
1
1
1
1
1
1
1
1
1
1
1
1
1
1
1
1
1
1
1
1
1.00004
1.00028
1.00177
1.00847
1.03308
1.10194
1.25614
1.5282
1.89796
2.29768
2.66635
2.9285
3.10356
3.20649
1
1
1
1
1
1
1
1
1
1
1
1
1
1
1
1
1
1
1
1
1
1
1
1
1
1
1
1
1
1
1
1
1
1
1
1
1
1
1
1
1
1
1
1
1
1
1
1
1
1
1
1
1
1
1
1
1
1
1
1
1
1
1
1
1
1
1
1
1
1.00001
1.00012
1.00098
1.00589
1.02698
1.095
1.25781
1.55323
1.95596
2.36163
2.85567
1
1
1
1
1
1
1
1
1
1
1
1
1
1
1
1
1
1
1
1
1
1
1
1
1
1
1
1
1
1
1
1
1
1
1
1
1
1
1
1
1
1
1
1
1
1
1
1
1
1
1
1
1
1
1
1
1
1
1
1
1
1
1
1
1
1
1
1
1
1
1
1
1.00001
1.00009
1.00091
1.00622
1.03082
1.11553
1.29483
1.89883
1
1
1
1
1
1
1
1
1
1
1
1
1
1
1
1
1
1
1
1
1
1
1
1
1
1
1
1
1
1
1
1
1
1
1
1
1
1
1
1
1
1
1
1
1
1
1
1
1
1
1
1
1
1
1
1
1
1
1
1
1
1
1
1
1
1
1
1
1
1
1
1
1
1
1
1.00001
1.00012
1.0014
1.00841
1.12623
1
1
1
1
1
1
1
1
1
1
1
1
1
1
1
1
1
1
1
1
1
1
1
1
1
1
1
1
1
1
1
1
1
1
1
1
1
1
1
1
1
1
1
1
1
1
1
1
1
1
1
1
1
1
1
1
1
1
1
1
1
1
1
1
1
1
1
1
1
1
1
1
1
1
1
1
1
1
1.00001
1.00267
1
1
1
1
1
1
1
1
1
1
1
1
1
1
1
1
1
1
1
1
1
1
1
1
1
1
1
1
1
1
1
1
1
1
1
1
1
1
1
1
1
1
1
1
1
1
1
1
1
1
1
1
1
1
1
1
1
1
1
1
1
1
1
1
1
1
1
1
1
1
1
1
1
1
1
1
1
1
1
1.00001
1
1
1
1
1
1
1
1
1
1
1
1
1
1
1
1
1
1
1
1
1
1
1
1
1
1
1
1
1
1
1
1
1
1
1
1
1
1
1
1
1
1
1
1
1
1
1
1
1
1
1
1
1
1
1
1
1
1
1
1
1
1
1
1
1
1
1
1
1
1
1
1
1
1
1
1
1
1
1
1
1
1
1
1
1
1
1
1
1
1
1
1
1
1
1
1
1
1
1
1
1
1
1
1
1
1
1
1
1
1
1
1
1
1
1
1
1
1
1
1
1
1
1
1
1
1
1
1
1
1
1
1
1
1
1
1
1
1
1
1
1
1
1
1
1
1
1
1
1
1
1
1
1
1
1
1
1
1
1
1
1
1
1
1
1
1
1
1
1
1
1
1
1
1
1
1
1
1
1
1
1
1
1
1
1
1
1
1
1
1
1
1
1
1
1
1
1
1
1
1
1
1
1
1
1
1
1
1
1
1
1
1
1
1
1
1
1
1
1
1
1
1
1
1
1
1
1
1
1
1
1
1
1
1
1
1
1
1
1
1
1
1
1
1
1
1
1
1
1
1
1
1
1
1
1
1
1
1
1
1
1
1
1
1
1
1
1
1
1
1
1
1
1
1
1
1
1
1
1
1
1
1
1
1
1
1
1
1
1
1
1
1
1
1
1
1
1
1
1
1
1
1
1
1
1
1
1
1
1
1
1
1
1
1
1
1
1
1
1
1
1
1
1
1
1
1
1
1
1
1
1
1
1
1
1
1
1
1
1
1
1
1
1
1
1
1
1
1
1
1
1
1
1
1
1
1
1
1
1
1
1
1
1
1
1
1
1
1
1
1
1
1
1
1
1
1
1
1
1
1
1
1
1
1
1
1
1
1
1
1
1
1
1
1
1
1
1
1
1
1
1
1
1
1
1
1
1
1
1
1
1
1
1
1
1
1
1
1
1
1
1
1
1
1
1
1
1
1
1
1
1
1
1
1
1
1
1
1
1
1
1
1
1
1
1
1
1
1
1
1
1
1
1
1
1
1
1
1
1
1
1
1
1
1
1
1
1
1
1
1
1
1
1
1
1
1
1
1
1
1
1
1
1
1
1
1
1
1
1
1
1
1
1
1
1
1
1
1
1
1
1
1
1
1
1
1
1
1
1
1
1
1
1
1
1
1
1
1
1
1
1
1
1
1
1
1
1
1
1
1
1
1
1
1
1
1
1
1
1
1
1
1
1
1
1
1
1
1
1
1
1
1
1
1
1
1
1
1
1
1
1
1
1
1
1
1
1
1
1
1
1
1
1
1
1
1
1
1
1
1
1
1
1
1
1
1
1
1
1
1
1
1
1
1
1
1
1
1
1
1
1
1
1
1
1
1
1
1
1
1
1
1
1
1
1
1
1
1
1
1
1
1
1
1
1
1
1
1
1
1
1
1
1
1
1
1
1
1
1
1
1
1
1
1
1
1
1
1
1
1
1
1
1
1
1
1
1
1
1
1
1
1
1
1
1
1
1
1
1
1
1
1
1
1
1
1
1
1
1
1
1
1
1
1
1
1
1
1
1
1
1
1
1
1
1
1
1
1
1
1
1
1
1
1
1
1
1
1
1
1
1
1
1
1
1
1
1
1
1
1
)
;

boundaryField
{
    inlet
    {
        type            fixedValue;
        value           uniform 1;
    }
    outlet
    {
        type            zeroGradient;
    }
    bottom
    {
        type            symmetryPlane;
    }
    top
    {
        type            symmetryPlane;
    }
    obstacle
    {
        type            zeroGradient;
    }
    defaultFaces
    {
        type            empty;
    }
}


// ************************************************************************* //
