/*--------------------------------*- C++ -*----------------------------------*\
| =========                 |                                                 |
| \\      /  F ield         | OpenFOAM: The Open Source CFD Toolbox           |
|  \\    /   O peration     | Version:  2206                                  |
|   \\  /    A nd           | Website:  www.openfoam.com                      |
|    \\/     M anipulation  |                                                 |
\*---------------------------------------------------------------------------*/
FoamFile
{
    version     2.0;
    format      ascii;
    arch        "LSB;label=32;scalar=64";
    class       volScalarField;
    location    "0.14";
    object      T;
}
// * * * * * * * * * * * * * * * * * * * * * * * * * * * * * * * * * * * * * //

dimensions      [0 0 0 1 0 0 0];

internalField   nonuniform List<scalar> 
4800
(
1
1
1
1
1
1
1
1
1
1
1
1
1
1
1
1
1
1
1
1
1
1
1
1
1
1
1
1
1
1
1
1
1
1
1
1
1
1
1
1
1
1
1
1
1
1
1
1
1
1
1
1
1
1
1
1
1
1
1
1
1
1
1
1
1
1
1
1
1
1
1
1
1
1
1
1
1
1
1
1
1
1
1
1
1
1
1
1
1
1
1
1
1
1
1
1
1
1
1
1
1
1
1
1
1
1
1
1
1
1
1
1
1
1
1
1
1
1
1
1
1
1
1
1
1
1
1
1
1
1
1
1
1
1
1
1
1
1
1
1
1
1
1
1
1
1
1
1
1
1
1
1
1
1
1
1
1
1
1
1
1
1
1
1
1
1
1
1
1
1
1
1
1
1
1
1
1
1
1
1
1
1
1
1
1
1
1
1
1
1
1
1
1
1
1
1
1
1
1
1
1
1
1
1
1
1
1
1
1
1
1
1
1
1
1
1
1
1
1
1
1
1
1
1
1
1
1
1
1
1
1
1
1
1
1
1
1
1
1
1
1
1
1
1
1
1
1
1
1
1
1
1
1
1
1
1
1
1
1
1
1
1
1
1
1
1
1
1
1
1
1
1
1
1
1
1
1
1
1
1
1
1
1
1
1
1
1
1
1
1
1
1
1
1
1
1
1
1
1
1
1
1
1
1
1
1
1
1
1
1
1
1
1
1
1
1
1
1
1
1
1
1
1
1
1
1
1
1
1
1
1
1
1
1
1
1
1
1
1
1
1
1
1
1
1
1
1
1
1
1
1
1
1
1
1
1
1
1
1
1
1
1
1
1
1
1
1
1
1
1
1
1
1
1
1
1
1
1
1
1
1
1
1
1
1
1
1
1
1
1
1
1
1
1
1
1
1
1
1
1
1
1
1
1
1
1
1
1
1
1
1
1
1
1
1
1
1
1
1
1
1
1
1
1
1
1
1
1
1
1
1
1
1
1
1
1
1
1
1
1
1
1
1
1
1
1
1
1
1
1
1
1
1
1
1
1
1
1
1
1
1
1
1
1
1
1
1
1
1
1
1
1
1
1
1
1
1
1
1
1
1
1
1
1
1
1
1
1
1
1
1
1
1
1
1
1
1
1
1
1
1
1
1
1
1
1
1
1
1
1
1
1
1
1
1
1
1
1
1
1
1
1
1
1
1
1
1
1
1
1
1
1
1
1
1
1
1
1
1
1
1
1
1
1
1
1
1
1
1
1
1
1
1
1
1
1
1
1
1
1
1
1
1
1
1
1
1
1
1
1
1
1
1
1
1
1
1
1
1
1
1
1
1
1
1
1
1
1
1
1
1
1
1
1
1
1
1
1
1
1
1
1
1
1
1
1
1
1
1
1
1
1
1
1
1
1
1
1
1
1
1
1
1
1
1
1
1
1
1
1
1
1
1
1
1
1
1
1
1
1
1
1
1
1
1
1
1
1
1
1
1
1
1
1
1
1
1
1
1
1
1
1
1
1
1
1
1
1
1
1
1
1
1
1
1
1
1
1
1
1
1
1
1
1
1
1
1
1
1
1
1
1
1
1
1
1
1
1
1
1
1
1
1
1
1
1
1
1
1
1
1
1
1
1
1
1
1
1
1
1
1
1
1
1
1
1
1
1
1
1
1
1
1
1
1
1
1
1
1
1
1
1
1
1
1
1
1
1
1
1
1
1
1
1
1
1
1
1
1
1
1
1
1
1
1
1
1
1
1
1
1
1
1
1
1
1
1
1
1
1
1
1
1
1
1
1
1
1
1
1
1
1
1
1
1
1
1
1
1
1
1
1
1
1
1
1
1
1
1
1
1
1
1
1
1
1
1
1
1
1
1
1
1
1
1
1
1
1
1
1
1
1
1
1
1
1
1
1
1
1
1
1
1
1
1
1
1
1
1
1
1
1
1
1
1
1
1
1
1
1
1
1
1
1
1
1
1
1
1
1
1
1
1
1
1
1
1
1
1
1
1
1
1
1
1
1
1
1
1
1
1
1
1
1
1
1
1
1
1
1
1
1
1
1
1
1
1
1
1
1
1
1
1
1
1
1
1
1
1
1
1
1
1
1
1
1
1
1
1
1
1
1
1
1
1
1
1
1
1
1
1
1
1
1
1
1
1
1
1
1
1
1
1
1
1
1
1
1
1
1
1
1
1
1
1
1
1
1
1
1
1
1
1
1
1
1
1
1
1
1
1
1
1
1
1
1
1
1
1
1
1
1
1
1
1
1
1
1
1
1
1
1
1
1
1
1
1
1
1
1
1
1
1
1
1
1
1
1
1
1
1
1
1
1
1
1
1
1
1
1
1
1
1
1
1
1
1
1
1
1
1
1
1
1
1
1
1
1
1
1
1
1
1
1
1
1
1
1
1
1
1
1
1
1
1
1
1
1
1
1
1
1
1
1
1
1
1
1
1
1
1
1
1
1
1
1
1
1
1
1
1
1
1
1
1
1
1
1
1
1
1
1
1
1
1
1
1
1
1
1
1
1
1
1
1
1
1
1
1
1
1
1
1
1
1
1
1
1
1
1
1
1
1
1
1
1
1
1
1
1
1
1
1
1
1
1
1
1
1
1
1
1
1
1
1
1
1
1
1
1
1
1
1
1
1
1
1
1
1
1
1
1
1
1
1
1
1
1
1
1
1
1
1
1
1
1
1
1
1
1
1
1
1
1
1
1
1
1
1
1
1
1
1
1
1
1
1
1
1
1
1
1
1
1
1
1
1
1
1
1
1
1
1
1
1
1
1
1
1
1
1
1
1
1
1
1
1
1
1
1
1
1
1
1
1
1
1
1
1
1
1
1
1
1
1
1
1
1
1
1
1
1
1
1
1
1
1
1
1
1
1
1
1
1
1
1
1
1
1
1
1
1
1
1
1
1
1
1
1
1
1
1
1
1
1
1
1
1
1
1
1
1
1
1
1
1
1
1
1
1
1
1
1
1
1
1
1
1
1
1
1
1
1
1
1
1
1
1
1
1
1
1
1
1
1
1
1
1
1
1
1
1
1
1
1
1
1
1
1
1
1
1
1
1
1
1
1
1
1
1
1
1
1
1
1
1
1
1
1
1
1
1
1
1
1
1
1
1
1
1
1
1
1
1
1
1
1
1
1
1
1
1
1
1
1
1
1
1
1
1
1
1
1
1
1
1
1
1
1
1
1
1
1
1
1
1
1
1
1
1
1
1
1
1
1
1
1
1
1
1
1
1
1
1
1
1
1
1
1
1
1
1
1
1
1
1
1
1
1
1
1
1
1
1
1
1
1
1
1
1
1
1
1
1
1
1
1
1
1
1
1
1
1
1
1
1
1
1
1
1
1
1
1
1
1
1
1
1
1
1
1
1
1
1
1
1
1
1
1
1
1
1
1
1
1
1
1
1
1
1
1
1
1
1
1
1
1
1
1
1
1
1
1
1
1
1
1
1
1
1
1
1
1
1
1
1
1
1
1
1
1
1
1
1
1
1
1
1
1
1
1
1
1
1
1
1
1
1
1
1
1
1
1
1
1
1
1
1
1
1
1
1
1
1
1
1
1
1
1
1
1
1
1
1
1
1
1
1
1
1
1
1
1
1
1
1
1
1
1
1
1.0739
1.16552
1.2603
1.3589
1.42693
1.49302
1.55199
1.57925
1.60518
1.60444
1.5934
1.56415
1.52218
1.48256
1.4725
1.46401
1.45221
1.45111
1.45367
1.45942
1.465
1.46953
1.47137
1.47171
1.47268
1.47452
1.47609
1.47653
1.47637
1.47636
1.47718
1.47848
1.47909
1.47938
1.47959
1.47969
1.47992
1.48046
1.48078
1.48075
1.48067
1.48047
1.48016
1.48009
1.48018
1.48055
1.48068
1.48062
1.48046
1.48035
1.48041
1.48075
1.48115
1.48145
1.48171
1.48191
1.482
1.48204
1.48212
1.48211
1.48207
1.48211
1.48223
1.48252
1.48298
1.48334
1.48348
1.48352
1.48352
1.48346
1.48335
1.48321
1.48302
1.48267
1.48202
1.48102
1.47939
1.4773
1.4751
1.47071
1.0009
1.0095
1.02452
1.05789
1.12308
1.17762
1.24954
1.30846
1.36509
1.40806
1.43933
1.46368
1.48387
1.49373
1.50044
1.50061
1.4936
1.48447
1.47822
1.47471
1.4705
1.47071
1.47189
1.47314
1.47545
1.47748
1.47843
1.47844
1.47839
1.47853
1.4789
1.4795
1.47978
1.47985
1.47986
1.48001
1.48059
1.48131
1.48156
1.48161
1.48159
1.48154
1.48156
1.48177
1.48218
1.48259
1.48275
1.48279
1.48279
1.48278
1.48277
1.4828
1.48284
1.48286
1.48288
1.48288
1.48283
1.48276
1.48271
1.48267
1.48263
1.48263
1.48266
1.4828
1.48301
1.48328
1.48341
1.48343
1.48341
1.48332
1.48324
1.4832
1.48307
1.48275
1.48208
1.48098
1.47932
1.47721
1.47487
1.47046
0.999999
1.00001
1.00002
1.00014
1.00131
1.00503
1.01985
1.0555
1.1205
1.22334
1.33938
1.45718
1.4998
1.5384
1.54101
1.53943
1.53304
1.51948
1.49885
1.48164
1.47873
1.47902
1.47993
1.48307
1.48615
1.48611
1.48529
1.48493
1.48519
1.48583
1.48589
1.48617
1.4865
1.48626
1.48573
1.48541
1.48546
1.48548
1.4853
1.48502
1.48477
1.48477
1.4851
1.48577
1.48651
1.48696
1.48712
1.48711
1.48698
1.48689
1.48685
1.4867
1.48658
1.48646
1.48633
1.48617
1.48601
1.48589
1.48573
1.48553
1.48536
1.48518
1.48496
1.48491
1.48496
1.48507
1.48504
1.48497
1.48483
1.48457
1.4843
1.48415
1.48397
1.48361
1.48291
1.48174
1.47999
1.4779
1.47557
1.47123
1
1
1
1
1
1
1.00001
1.00015
1.00126
1.01004
1.04904
1.15877
1.29379
1.41237
1.48572
1.51028
1.51942
1.51123
1.50909
1.50983
1.50952
1.50695
1.50171
1.49908
1.49631
1.49319
1.49055
1.49114
1.49269
1.49472
1.49601
1.49628
1.49629
1.49602
1.49544
1.49455
1.494
1.49362
1.49307
1.49221
1.49152
1.49136
1.49153
1.49202
1.49241
1.4924
1.49233
1.49221
1.49199
1.492
1.49204
1.49202
1.49183
1.49156
1.49132
1.49111
1.49091
1.49078
1.49059
1.49035
1.49012
1.4898
1.48945
1.48924
1.48919
1.48906
1.48888
1.48865
1.4883
1.48786
1.48739
1.48701
1.48666
1.48615
1.4853
1.48396
1.48201
1.47971
1.47724
1.47294
1
1
1
1
1
1
1
1
1
0.999997
1.00008
1.00191
1.02178
1.08088
1.21347
1.34459
1.44998
1.50449
1.5243
1.53544
1.53352
1.52959
1.52238
1.50832
1.4963
1.49462
1.49606
1.49806
1.49903
1.50023
1.50131
1.50201
1.50235
1.50246
1.50273
1.50267
1.50246
1.50218
1.50144
1.50006
1.49884
1.49855
1.49873
1.49903
1.49899
1.49859
1.49795
1.49742
1.49708
1.49702
1.49697
1.49685
1.49648
1.49598
1.49556
1.49541
1.49542
1.49547
1.49547
1.49542
1.49527
1.49496
1.49463
1.49439
1.49424
1.49409
1.49391
1.49361
1.49317
1.49265
1.49206
1.49148
1.49097
1.49032
1.48931
1.48776
1.48561
1.48306
1.48035
1.47586
1
1
1
1
1
1
1
1
1
1
1
0.999999
1.00001
1.00033
1.00636
1.04573
1.12771
1.2729
1.38146
1.47707
1.50436
1.50843
1.51322
1.51289
1.5048
1.50323
1.50465
1.50417
1.50354
1.5018
1.49938
1.49884
1.49949
1.50156
1.5036
1.50507
1.5061
1.50616
1.50574
1.5049
1.50423
1.50374
1.50365
1.5036
1.50337
1.50277
1.50198
1.50169
1.50154
1.50139
1.50127
1.50102
1.50051
1.49979
1.49926
1.49915
1.4992
1.49937
1.49941
1.49935
1.49909
1.49871
1.49849
1.49849
1.49847
1.49843
1.49835
1.49817
1.49783
1.49738
1.49689
1.49632
1.49569
1.49492
1.49376
1.49204
1.48971
1.48702
1.4842
1.47963
1
1
1
1
1
1
1
1
1
1
1
1
1
1
0.999996
1.00011
1.00137
1.01818
1.08034
1.19087
1.32188
1.41572
1.49233
1.50866
1.51392
1.51389
1.51236
1.50929
1.50586
1.50172
1.49721
1.49604
1.49636
1.49797
1.5001
1.50164
1.50269
1.50369
1.5046
1.5054
1.50568
1.50564
1.50549
1.50537
1.50517
1.50474
1.50431
1.50401
1.50402
1.50403
1.50399
1.50378
1.50329
1.5026
1.50223
1.50222
1.50232
1.50241
1.50239
1.50224
1.50192
1.50151
1.50127
1.5012
1.50121
1.50121
1.50116
1.50101
1.50081
1.50061
1.50034
1.49993
1.49933
1.49848
1.49722
1.49541
1.49304
1.49028
1.48746
1.48307
1
1
1
1
1
1
1
1
1
1
1
1
1
1
1
1
0.999998
1.00001
1.00055
1.00527
1.04619
1.13323
1.25998
1.36707
1.44366
1.49562
1.50128
1.50316
1.50752
1.50532
1.50013
1.49828
1.4972
1.49713
1.49764
1.49766
1.49784
1.49852
1.49946
1.50054
1.50207
1.50269
1.5031
1.50352
1.50348
1.50343
1.50361
1.50405
1.50471
1.50512
1.50517
1.50502
1.50448
1.50393
1.50367
1.50359
1.50354
1.50351
1.50344
1.50327
1.50305
1.50271
1.50239
1.50229
1.50234
1.50237
1.50234
1.50221
1.50206
1.50201
1.50194
1.50169
1.50123
1.5004
1.4991
1.49724
1.49491
1.49227
1.48947
1.48536
1
1
1
1
1
1
1
1
1
1
1
1
1
1
1
1
1
1
1
0.999997
1.0002
1.00237
1.01819
1.09549
1.20223
1.32418
1.40005
1.46618
1.4977
1.50137
1.50176
1.50256
1.50235
1.50081
1.49885
1.49678
1.49576
1.49537
1.49492
1.49527
1.49674
1.49802
1.49922
1.49992
1.49973
1.49951
1.49966
1.50075
1.50227
1.50317
1.50342
1.50345
1.5033
1.50312
1.50313
1.50326
1.50358
1.50372
1.50372
1.50364
1.50327
1.50281
1.5026
1.50254
1.50259
1.50269
1.50271
1.50265
1.50255
1.50245
1.50232
1.50215
1.50183
1.50111
1.49984
1.49802
1.49571
1.49311
1.49026
1.48642
1
1
1
1
1
1
1
1
1
1
1
1
1
1
1
1
1
1
1
1
1
0.999998
1.00003
1.00122
1.00868
1.05206
1.15653
1.27334
1.37359
1.43101
1.47362
1.49018
1.4954
1.49881
1.49866
1.4977
1.49722
1.49704
1.4961
1.4958
1.49618
1.4964
1.49667
1.49689
1.49659
1.49607
1.49612
1.49708
1.4988
1.49978
1.49991
1.49984
1.49976
1.49987
1.50035
1.50109
1.5018
1.50223
1.50241
1.50247
1.50246
1.50253
1.50267
1.50283
1.50299
1.50305
1.503
1.50284
1.50273
1.50267
1.50257
1.50238
1.50203
1.50128
1.50006
1.49827
1.49594
1.49335
1.49066
1.48714
1
1
1
1
1
1
1
1
1
1
1
1
1
1
1
1
1
1
1
1
1
1
1
1
1
1.00036
1.00512
1.02736
1.12
1.24424
1.35517
1.40795
1.44952
1.47948
1.48938
1.49102
1.4934
1.49458
1.49447
1.49438
1.49493
1.49556
1.49645
1.49725
1.49725
1.49629
1.49554
1.49569
1.49625
1.49659
1.49653
1.49622
1.496
1.4961
1.49667
1.49781
1.49895
1.49956
1.49982
1.5
1.50026
1.50066
1.5012
1.50174
1.50217
1.5024
1.50245
1.50246
1.5025
1.50246
1.50238
1.5022
1.50181
1.50107
1.49988
1.49813
1.49587
1.4933
1.49076
1.48743
1
1
1
1
1
1
1
1
1
1
1
1
1
1
1
1
1
1
1
1
1
1
1
1
1
1
1
1.00011
1.00322
1.02085
1.0846
1.20591
1.32179
1.40516
1.44083
1.46179
1.47249
1.48058
1.48565
1.49023
1.49169
1.4923
1.4926
1.49337
1.49389
1.49414
1.49454
1.49518
1.49573
1.49589
1.49579
1.49521
1.49417
1.49373
1.49387
1.49472
1.49592
1.49648
1.49665
1.49681
1.49716
1.49776
1.49844
1.49924
1.49993
1.5004
1.50071
1.50097
1.50113
1.5013
1.50145
1.50141
1.50116
1.5005
1.49936
1.49767
1.49538
1.49276
1.49044
1.48731
1
1
1
1
1
1
1
1
1
1
1
1
1
1
1
1
1
1
1
1
1
1
1
1
1
1
1
1
1
1.00007
1.00138
1.01478
1.05876
1.17521
1.30473
1.4141
1.44454
1.45896
1.46974
1.47512
1.48098
1.48185
1.4822
1.4835
1.48559
1.4882
1.49004
1.49138
1.49257
1.49323
1.49348
1.49312
1.49233
1.49239
1.49279
1.49362
1.49455
1.4949
1.49482
1.49459
1.49459
1.49483
1.49544
1.49633
1.49712
1.49765
1.49804
1.49836
1.49859
1.49901
1.49951
1.49959
1.49944
1.4989
1.49787
1.49629
1.49428
1.49186
1.48973
1.48671
1
1
1
1
1
1
1
1
1
1
1
1
1
1
1
1
1
1
1
1
1
1
1
1
1
1
1
1
1
1
0.999999
1.00004
1.00066
1.01088
1.0544
1.16219
1.28968
1.39868
1.45676
1.46723
1.47748
1.47695
1.47702
1.47761
1.47794
1.47986
1.48212
1.48368
1.48539
1.487
1.48811
1.4889
1.48924
1.48958
1.49039
1.49129
1.49202
1.49252
1.49263
1.49262
1.49272
1.493
1.49355
1.49424
1.4949
1.49527
1.49541
1.49553
1.49573
1.49619
1.49685
1.49701
1.4969
1.49646
1.49555
1.49414
1.4923
1.49011
1.4883
1.48561
1
1
1
1
1
1
1
1
1
1
1
1
1
1
1
1
1
1
1
1
1
1
1
1
1
1
1
1
1
1
1
1
0.999999
1.00003
1.00063
1.00817
1.05374
1.14907
1.28129
1.39006
1.45802
1.47509
1.48147
1.48452
1.48186
1.48049
1.48106
1.48173
1.48232
1.48304
1.48306
1.48326
1.48422
1.48535
1.4866
1.48797
1.48898
1.4895
1.48966
1.48969
1.48988
1.49049
1.49128
1.49197
1.49254
1.49284
1.493
1.49315
1.49337
1.49374
1.49429
1.49443
1.49432
1.49391
1.49302
1.49162
1.48989
1.4879
1.48635
1.48389
1
1
1
1
1
1
1
1
1
1
1
1
1
1
1
1
1
1
1
1
1
1
1
1
1
1
1
1
1
1
1
1
1
1
0.999999
1.00002
1.00066
1.00643
1.05111
1.14967
1.28364
1.38765
1.45439
1.47781
1.48342
1.4863
1.48687
1.48727
1.48724
1.48647
1.48473
1.48313
1.48298
1.48359
1.4847
1.48549
1.48564
1.48567
1.48592
1.48643
1.48717
1.48801
1.48877
1.48942
1.49
1.49027
1.49043
1.49067
1.49103
1.49142
1.49183
1.4919
1.49179
1.49138
1.49049
1.48906
1.48737
1.4855
1.48408
1.48178
1
1
1
1
1
1
1
1
1
1
1
1
1
1
1
1
1
1
1
1
1
1
1
1
1
1
1
1
1
1
1
1
1
1
1
1
0.999999
1.00001
1.00072
1.00678
1.05517
1.17077
1.29474
1.38569
1.44802
1.47871
1.48445
1.48641
1.48867
1.48845
1.48741
1.48635
1.48624
1.48641
1.48679
1.48681
1.48627
1.48512
1.48458
1.48471
1.48531
1.48608
1.48676
1.48737
1.48789
1.48816
1.48833
1.4887
1.48912
1.48936
1.4896
1.48961
1.48948
1.48906
1.48813
1.48666
1.48499
1.48317
1.48176
1.47946
1
1
1
1
1
1
1
1
1
1
1
1
1
1
1
1
1
1
1
1
1
1
1
1
1
1
1
1
1
1
1
1
1
1
1
1
1
1
0.999999
1.00002
1.00102
1.00961
1.05889
1.18639
1.32298
1.4068
1.44575
1.46699
1.47928
1.48138
1.4831
1.48516
1.48652
1.48703
1.48743
1.48757
1.48706
1.48612
1.48568
1.48552
1.48543
1.48565
1.48613
1.4864
1.48662
1.48678
1.48698
1.48742
1.48785
1.48791
1.48789
1.48782
1.48762
1.48712
1.48611
1.48455
1.48288
1.48114
1.47971
1.47724
1
1
1
1
1
1
1
1
1
1
1
1
1
1
1
1
1
1
1
1
1
1
1
1
1
1
1
1
1
1
1
1
1
1
1
1
1
1
1
1
1
1.00003
1.00131
1.01459
1.07489
1.21272
1.35948
1.43551
1.45489
1.46526
1.47086
1.47656
1.47842
1.48023
1.48219
1.48408
1.48483
1.4849
1.48504
1.48544
1.48542
1.48556
1.4858
1.48594
1.48605
1.4861
1.48635
1.4868
1.48688
1.48681
1.48664
1.48647
1.48621
1.48564
1.48455
1.4829
1.48117
1.47953
1.47805
1.47523
1
1
1
1
1
1
1
1
1
1
1
1
1
1
1
1
1
1
1
1
1
1
1
1
1
1
1
1
1
1
1
1
1
1
1
1
1
1
1
1
1
1
1
1.00008
1.00208
1.0242
1.10697
1.253
1.3842
1.4554
1.47238
1.47846
1.47746
1.47847
1.47905
1.47964
1.48097
1.48171
1.48241
1.48332
1.48406
1.48441
1.48467
1.48509
1.48536
1.48555
1.48596
1.48617
1.48611
1.48595
1.48579
1.48562
1.48529
1.48458
1.48333
1.48159
1.47979
1.47825
1.47672
1.47354
1
1
1
1
1
1
1
1
1
1
1
1
1
1
1
1
1
1
1
1
1
1
1
1
1
1
1
1
1
1
1
1
1
1
1
1
1
1
1
1
1
1
1
1
1
1.00025
1.00441
1.04237
1.14552
1.29646
1.41435
1.47141
1.48341
1.48639
1.48727
1.48505
1.48334
1.48294
1.48333
1.48405
1.48405
1.4837
1.48364
1.48402
1.4846
1.48512
1.48556
1.48558
1.48546
1.48531
1.48517
1.48493
1.48446
1.48361
1.48225
1.48051
1.4786
1.47698
1.47539
1.47206
1
1
1
1
1
1
1
1
1
1
1
1
1
1
1
1
1
1
1
1
1
1
1
1
1
1
1
1
1
1
1
1
1
1
1
1
1
1
1
1
1
1
1
1
1
1
1.00002
1.00071
1.00937
1.07389
1.20487
1.34638
1.43762
1.47514
1.48624
1.48763
1.48813
1.48694
1.48679
1.48695
1.48662
1.48526
1.48424
1.4843
1.48478
1.48541
1.48565
1.48561
1.48534
1.48497
1.48476
1.48447
1.48392
1.48301
1.48165
1.4799
1.47785
1.47605
1.47437
1.47097
1
1
1
1
1
1
1
1
1
1
1
1
1
1
1
1
1
1
1
1
1
1
1
1
1
1
1
1
1
1
1
1
1
1
1
1
1
1
1
1
1
1
1
1
1
1
1
1
1.00007
1.00218
1.02228
1.1308
1.28806
1.39117
1.44458
1.46965
1.48258
1.48349
1.48496
1.48624
1.48615
1.48516
1.4843
1.48448
1.48505
1.48562
1.48567
1.48557
1.48526
1.48496
1.48473
1.4844
1.48385
1.48298
1.48166
1.47982
1.47755
1.47562
1.47385
1.47037
1
1
1
1
1
1
1
1
1
1
1
1
1
1
1
1
1
1
1
1
1
1
1
1
1
1
1
1
1
1
1
1
1
1
1
1
1
1
1
1
1
1
1
1
1
1
1
1
1
1
1.00034
1.00854
1.05569
1.19654
1.35462
1.44547
1.46508
1.47323
1.47842
1.48194
1.483
1.48279
1.48285
1.48335
1.48413
1.48479
1.48511
1.48525
1.48521
1.48499
1.48471
1.4844
1.48387
1.48302
1.48182
1.48008
1.47768
1.47508
1.47294
1.46982
1
1
1
1
1
1
1
1
1
1
1
1
1
1
1
1
1
1
1
1
1
1
1
1
1
1
1
1
1
1
1
1
1
1
1
1
1
1
1
1
1
1
1
1
1
1
1
1
1
1
1
1.00006
1.00153
1.02554
1.11466
1.2824
1.41285
1.4744
1.4858
1.48527
1.48482
1.48385
1.4835
1.484
1.4848
1.48506
1.48518
1.48537
1.48542
1.48527
1.48496
1.48445
1.48384
1.48315
1.48215
1.48055
1.47814
1.475
1.47204
1.46884
1
1
1
1
1
1
1
1
1
1
1
1
1
1
1
1
1
1
1
1
1
1
1
1
1
1
1
1
1
1
1
1
1
1
1
1
1
1
1
1
1
1
1
1
1
1
1
1
1
1
1
1
1
1.00043
1.00678
1.07063
1.2118
1.35647
1.44748
1.47946
1.48565
1.48549
1.48684
1.48742
1.48708
1.48614
1.4858
1.48592
1.48585
1.48568
1.48533
1.48472
1.484
1.48333
1.48236
1.48087
1.47873
1.47576
1.47217
1.468
1
1
1
1
1
1
1
1
1
1
1
1
1
1
1
1
1
1
1
1
1
1
1
1
1
1
1
1
1
1
1
1
1
1
1
1
1
1
1
1
1
1
1
1
1
1
1
1
1
1
1
1
1
1
1.00006
1.00275
1.02828
1.15442
1.32918
1.42904
1.45395
1.47029
1.48244
1.48557
1.48574
1.48512
1.48491
1.48497
1.48505
1.48525
1.4854
1.48511
1.48429
1.48342
1.48251
1.48106
1.47889
1.47649
1.47357
1.46808
1
1
1
1
1
1
1
1
1
1
1
1
1
1
1
1
1
1
1
1
1
1
1
1
1
1
1
1
1
1
1
1
1
1
1
1
1
1
1
1
1
1
1
1
1
1
1
1
1
1
1
1
1
1
1
1.00001
1.00067
1.0159
1.09398
1.26818
1.40825
1.47238
1.48132
1.48334
1.48414
1.4839
1.48384
1.48406
1.48449
1.48504
1.48554
1.48552
1.4848
1.48345
1.48192
1.48064
1.47893
1.47665
1.47447
1.46957
1
1
1
1
1
1
1
1
1
1
1
1
1
1
1
1
1
1
1
1
1
1
1
1
1
1
1
1
1
1
1
1
1
1
1
1
1
1
1
1
1
1
1
1
1
1
1
1
1
1
1
1
1
1
1
1
1
1.00025
1.00543
1.06437
1.20768
1.36618
1.45584
1.48562
1.48871
1.48805
1.48739
1.48628
1.48583
1.48593
1.48631
1.48689
1.48629
1.48433
1.48149
1.47887
1.47749
1.47617
1.47474
1.47107
1
1
1
1
1
1
1
1
1
1
1
1
1
1
1
1
1
1
1
1
1
1
1
1
1
1
1
1
1
1
1
1
1
1
1
1
1
1
1
1
1
1
1
1
1
1
1
1
1
1
1
1
1
1
1
1
1
1
1.00006
1.00265
1.03202
1.17226
1.35034
1.43454
1.46031
1.47762
1.48444
1.48549
1.48567
1.48584
1.48656
1.48734
1.48714
1.48553
1.48228
1.47814
1.47475
1.47327
1.47342
1.47172
1
1
1
1
1
1
1
1
1
1
1
1
1
1
1
1
1
1
1
1
1
1
1
1
1
1
1
1
1
1
1
1
1
1
1
1
1
1
1
1
1
1
1
1
1
1
1
1
1
1
1
1
1
1
1
1
1
1
1
1.00002
1.00111
1.02109
1.12397
1.30588
1.43401
1.48018
1.48113
1.48418
1.48537
1.4847
1.48468
1.48578
1.48737
1.48696
1.4849
1.48034
1.47471
1.47129
1.46982
1.46936
1
1
1
1
1
1
1
1
1
1
1
1
1
1
1
1
1
1
1
1
1
1
1
1
1
1
1
1
1
1
1
1
1
1
1
1
1
1
1
1
1
1
1
1
1
1
1
1
1
1
1
1
1
1
1
1
1
1
1
1
1.00001
1.00046
1.01173
1.09758
1.27239
1.40617
1.47051
1.49125
1.49053
1.486
1.48357
1.48403
1.48637
1.48819
1.48784
1.4859
1.48035
1.47264
1.46826
1.46679
1
1
1
1
1
1
1
1
1
1
1
1
1
1
1
1
1
1
1
1
1
1
1
1
1
1
1
1
1
1
1
1
1
1
1
1
1
1
1
1
1
1
1
1
1
1
1
1
1
1
1
1
1
1
1
1
1
1
1
1
1
1
1.00028
1.00663
1.073
1.25222
1.41438
1.46639
1.47505
1.47737
1.47851
1.47944
1.48051
1.4836
1.4875
1.48761
1.48545
1.48013
1.47053
1.4664
1
1
1
1
1
1
1
1
1
1
1
1
1
1
1
1
1
1
1
1
1
1
1
1
1
1
1
1
1
1
1
1
1
1
1
1
1
1
1
1
1
1
1
1
1
1
1
1
1
1
1
1
1
1
1
1
1
1
1
1
1
1
1
1.00011
1.00511
1.05869
1.22603
1.3854
1.47236
1.48913
1.48924
1.48275
1.47599
1.47491
1.47635
1.48229
1.48567
1.48361
1.4752
1.48288
1
1
1
1
1
1
1
1
1
1
1
1
1
1
1
1
1
1
1
1
1
1
1
1
1
1
1
1
1
1
1
1
1
1
1
1
1
1
1
1
1
1
1
1
1
1
1
1
1
1
1
1
1
1
1
1
1
1
1
1
1
1
1
1
1.00009
1.00312
1.04734
1.19691
1.36804
1.47
1.49239
1.49358
1.48891
1.47834
1.47338
1.47369
1.47718
1.48106
1.48162
1.59261
1
1
1
1
1
1
1
1
1
1
1
1
1
1
1
1
1
1
1
1
1
1
1
1
1
1
1
1
1
1
1
1
1
1
1
1
1
1
1
1
1
1
1
1
1
1
1
1
1
1
1
1
1
1
1
1
1
1
1
1
1
1
1
1
1
1.00005
1.00226
1.0373
1.19615
1.36511
1.46302
1.49312
1.49411
1.4912
1.47882
1.47155
1.47125
1.47817
1.53362
1.80725
1
1
1
1
1
1
1
1
1
1
1
1
1
1
1
1
1
1
1
1
1
1
1
1
1
1
1
1
1
1
1
1
1
1
1
1
1
1
1
1
1
1
1
1
1
1
1
1
1
1
1
1
1
1
1
1
1
1
1
1
1
1
1
1
1
1
1.00003
1.00205
1.03714
1.191
1.35968
1.45733
1.49227
1.49251
1.48851
1.47708
1.48453
1.58461
1.77233
1.93165
1
1
1
1
1
1
1
1
1
1
1
1
1
1
1
1
1
1
1
1
1
1
1
1
1
1
1
1
1
1
1
1
1
1
1
1
1
1
1
1
1
1
1
1
1
1
1
1
1
1
1
1
1
1
1
1
1
1
1
1
1
1
1
1
1
1
1
1.00004
1.00193
1.03444
1.18963
1.35542
1.45898
1.48528
1.49654
1.52395
1.63847
1.83689
1.95428
1.96101
1
1
1
1
1
1
1
1
1
1
1
1
1
1
1
1
1
1
1
1
1
1
1
1
1
1
1
1
1
1
1
1
1
1
1
1
1
1
1
1
1
1
1
1
1
1
1
1
1
1
1
1
1
1
1
1
1
1
1
1
1
1
1
1
1
1
1
1
1.00003
1.0019
1.03495
1.18351
1.37245
1.46103
1.57861
1.68714
1.83035
1.89966
1.95772
1.95138
1
1
1
1
1
1
1
1
1
1
1
1
1
1
1
1
1
1
1
1
1
1
1
1
1
1
1
1
1
1
1
1
1
1
1
1
1
1
1
1
1
1
1
1
1
1
1
1
1
1
1
1
1
1
1
1
1
1
1
1
1
1
1
1
1
1
1
1
1
1.00004
1.00195
1.03972
1.21888
1.52006
1.75003
1.94436
2.03154
2.01385
1.97821
1.94755
)
;

boundaryField
{
    inlet
    {
        type            fixedValue;
        value           uniform 1;
    }
    outlet
    {
        type            zeroGradient;
    }
    bottom
    {
        type            symmetryPlane;
    }
    top
    {
        type            symmetryPlane;
    }
    obstacle
    {
        type            zeroGradient;
    }
    defaultFaces
    {
        type            empty;
    }
}


// ************************************************************************* //
