/*--------------------------------*- C++ -*----------------------------------*\
| =========                 |                                                 |
| \\      /  F ield         | OpenFOAM: The Open Source CFD Toolbox           |
|  \\    /   O peration     | Version:  2206                                  |
|   \\  /    A nd           | Website:  www.openfoam.com                      |
|    \\/     M anipulation  |                                                 |
\*---------------------------------------------------------------------------*/
FoamFile
{
    version     2.0;
    format      ascii;
    arch        "LSB;label=32;scalar=64";
    class       volScalarField;
    location    "0.1";
    object      rho;
}
// * * * * * * * * * * * * * * * * * * * * * * * * * * * * * * * * * * * * * //

dimensions      [1 -3 0 0 0 0 0];

internalField   nonuniform List<scalar> 
4800
(
1.40001
1.40001
1.40001
1.40001
1.40001
1.40001
1.40001
1.40001
1.40001
1.40001
1.40001
1.40001
1.40001
1.40001
1.40001
1.40001
1.40001
1.40001
1.40001
1.40001
1.40001
1.40001
1.40001
1.40001
1.40001
1.40001
1.40001
1.40001
1.40001
1.40001
1.40001
1.40001
1.40001
1.40001
1.40001
1.40001
1.40001
1.40001
1.40001
1.40001
1.40001
1.40001
1.40001
1.40001
1.40001
1.40001
1.40001
1.40001
1.40001
1.40001
1.40001
1.40001
1.40001
1.40001
1.40001
1.40001
1.40001
1.40001
1.40001
1.40001
1.40001
1.40001
1.40001
1.40001
1.40001
1.40001
1.40001
1.40001
1.40001
1.40001
1.40001
1.40001
1.40001
1.40001
1.40001
1.40001
1.40001
1.40001
1.40001
1.40001
1.40001
1.40001
1.40001
1.40001
1.40001
1.40001
1.40001
1.40001
1.40001
1.40001
1.40001
1.40001
1.40001
1.40001
1.40001
1.40001
1.40001
1.40001
1.40001
1.40001
1.40001
1.40001
1.40001
1.40001
1.40001
1.40001
1.40001
1.40001
1.40001
1.40001
1.40001
1.40001
1.40001
1.40001
1.40001
1.40001
1.40001
1.40001
1.40001
1.40001
1.40001
1.40001
1.40001
1.40001
1.40001
1.40001
1.40001
1.40001
1.40001
1.40001
1.40001
1.40001
1.40001
1.40001
1.40001
1.40001
1.40001
1.40001
1.40001
1.40001
1.40001
1.40001
1.40001
1.40001
1.40001
1.40001
1.40001
1.40001
1.40001
1.40001
1.40001
1.40001
1.40001
1.40001
1.40001
1.40001
1.40001
1.40001
1.40001
1.40001
1.40001
1.40001
1.40001
1.40001
1.40001
1.40001
1.40001
1.40001
1.40001
1.40001
1.40001
1.40001
1.40001
1.40001
1.40001
1.40001
1.40001
1.40001
1.40001
1.40001
1.40001
1.40001
1.40001
1.40001
1.40001
1.40001
1.40001
1.40001
1.40001
1.40001
1.40001
1.40001
1.40001
1.40001
1.40001
1.40001
1.40001
1.40001
1.40001
1.40001
1.40001
1.40001
1.40001
1.40001
1.40001
1.40001
1.40001
1.40001
1.40001
1.40001
1.40001
1.40001
1.40001
1.40001
1.40001
1.40001
1.40001
1.40001
1.40001
1.40001
1.40001
1.40001
1.40001
1.40001
1.40001
1.40001
1.40001
1.40001
1.40001
1.40001
1.40001
1.40001
1.40001
1.40001
1.40001
1.40001
1.40001
1.40001
1.40001
1.40001
1.40001
1.40001
1.40001
1.40001
1.40001
1.40001
1.40001
1.40001
1.40001
1.40001
1.40001
1.40001
1.40001
1.40001
1.40001
1.40001
1.40001
1.40001
1.40001
1.40001
1.40001
1.40001
1.40001
1.40001
1.40001
1.40001
1.40001
1.40001
1.40001
1.40001
1.40001
1.40001
1.40001
1.40001
1.40001
1.40001
1.40001
1.40001
1.40001
1.40001
1.40001
1.40001
1.40001
1.40001
1.40001
1.40001
1.40001
1.40001
1.40001
1.40001
1.40001
1.40001
1.40001
1.40001
1.40001
1.40001
1.40001
1.40001
1.40001
1.40001
1.40001
1.40001
1.40001
1.40001
1.40001
1.40001
1.40001
1.40001
1.40001
1.40001
1.40001
1.40001
1.40001
1.40001
1.40001
1.40001
1.40001
1.40001
1.40001
1.40001
1.40001
1.40001
1.40001
1.40001
1.40001
1.40001
1.40001
1.40001
1.40001
1.40001
1.40001
1.40001
1.40001
1.40001
1.40001
1.40001
1.40001
1.40001
1.40001
1.40001
1.40001
1.40001
1.40001
1.40001
1.40001
1.40001
1.40001
1.40001
1.40001
1.40001
1.40001
1.40001
1.40001
1.40001
1.40001
1.40001
1.40001
1.40001
1.40001
1.40001
1.40001
1.40001
1.40001
1.40001
1.40001
1.40001
1.40001
1.40001
1.40001
1.40001
1.40001
1.40001
1.40001
1.40001
1.40001
1.40001
1.40001
1.40001
1.40001
1.40001
1.40001
1.40001
1.40001
1.40001
1.40001
1.40001
1.40001
1.40001
1.40001
1.40001
1.40001
1.40001
1.40001
1.40001
1.40001
1.40001
1.40001
1.40001
1.40001
1.40001
1.40001
1.40001
1.40001
1.40001
1.40001
1.40001
1.40001
1.40001
1.40001
1.40001
1.40001
1.40001
1.40001
1.40001
1.40001
1.40001
1.40001
1.40001
1.40001
1.40001
1.40001
1.40001
1.40001
1.40001
1.40001
1.40001
1.40001
1.40001
1.40001
1.40001
1.40001
1.40001
1.40001
1.40001
1.40001
1.40001
1.40001
1.40001
1.40001
1.40001
1.40001
1.40001
1.40001
1.40001
1.40001
1.40001
1.40001
1.40001
1.40001
1.40001
1.40001
1.40001
1.40001
1.40001
1.40001
1.40001
1.40001
1.40001
1.40001
1.40001
1.40001
1.40001
1.40001
1.40001
1.40001
1.40001
1.40001
1.40001
1.40001
1.40001
1.40001
1.40001
1.40001
1.40001
1.40001
1.40001
1.40001
1.40001
1.40001
1.40001
1.40001
1.40001
1.40001
1.40001
1.40001
1.40001
1.40001
1.40001
1.40001
1.40001
1.40001
1.40001
1.40001
1.40001
1.40001
1.40001
1.40001
1.40001
1.40001
1.40001
1.40001
1.40001
1.40001
1.40001
1.40001
1.40001
1.40001
1.40001
1.40001
1.40001
1.40001
1.40001
1.40001
1.40001
1.40001
1.40001
1.40001
1.40001
1.40001
1.40001
1.40001
1.40001
1.40001
1.40001
1.40001
1.40001
1.40001
1.40001
1.40001
1.40001
1.40001
1.40001
1.40001
1.40001
1.40001
1.40001
1.40001
1.40001
1.40001
1.40001
1.40001
1.40001
1.40001
1.40001
1.40001
1.40001
1.40001
1.40001
1.40001
1.40001
1.40001
1.40001
1.40001
1.40001
1.40001
1.40001
1.40001
1.40001
1.40001
1.40001
1.40001
1.40001
1.40001
1.40001
1.40001
1.40001
1.40001
1.40001
1.40001
1.40001
1.40001
1.40001
1.40001
1.40001
1.40001
1.40001
1.40001
1.40001
1.40001
1.40001
1.40001
1.40001
1.40001
1.40001
1.40001
1.40001
1.40001
1.40001
1.40001
1.40001
1.40001
1.40001
1.40001
1.40001
1.40001
1.40001
1.40001
1.40001
1.40001
1.40001
1.40001
1.40001
1.40001
1.40001
1.40001
1.40001
1.40001
1.40001
1.40001
1.40001
1.40001
1.40001
1.40001
1.40001
1.40001
1.40001
1.40001
1.40001
1.40001
1.40001
1.40001
1.40001
1.40001
1.40001
1.40001
1.40001
1.40001
1.40001
1.40001
1.40001
1.40001
1.40001
1.40001
1.40001
1.40001
1.40001
1.40001
1.40001
1.40001
1.40001
1.40001
1.40001
1.40001
1.40001
1.40001
1.40001
1.40001
1.40001
1.40001
1.40001
1.40001
1.40001
1.40001
1.40001
1.40001
1.40001
1.40001
1.40001
1.40001
1.40001
1.40001
1.40001
1.40001
1.40001
1.40001
1.40001
1.40001
1.40001
1.40001
1.40001
1.40001
1.40001
1.40001
1.40001
1.40001
1.40001
1.40001
1.40001
1.40001
1.40001
1.40001
1.40001
1.40001
1.40001
1.40001
1.40001
1.40001
1.40001
1.40001
1.40001
1.40001
1.40001
1.40001
1.40001
1.40001
1.40001
1.40001
1.40001
1.40001
1.40001
1.40001
1.40001
1.40001
1.40001
1.40001
1.40001
1.40001
1.40001
1.40001
1.40001
1.40001
1.40001
1.40001
1.40001
1.40001
1.40001
1.40001
1.40001
1.40001
1.40001
1.40001
1.40001
1.40001
1.40001
1.40001
1.40001
1.40001
1.40001
1.40001
1.40001
1.40001
1.40001
1.40001
1.40001
1.40001
1.40001
1.40001
1.40001
1.40001
1.40001
1.40001
1.40001
1.40001
1.40001
1.40001
1.40001
1.40001
1.40001
1.40001
1.40001
1.40001
1.40001
1.40001
1.40001
1.40001
1.40001
1.40001
1.40001
1.40001
1.40001
1.40001
1.40001
1.40001
1.40001
1.40001
1.40001
1.40001
1.40001
1.40001
1.40001
1.40001
1.40001
1.40001
1.40001
1.40001
1.40001
1.40001
1.40001
1.40001
1.40001
1.40001
1.40001
1.40001
1.40001
1.40001
1.40001
1.40001
1.40001
1.40001
1.40001
1.40001
1.40001
1.40001
1.40001
1.40001
1.40001
1.40001
1.40001
1.40001
1.40001
1.40001
1.40001
1.40001
1.40001
1.40001
1.40001
1.40001
1.40001
1.40001
1.40001
1.40001
1.40001
1.40001
1.40001
1.40001
1.40001
1.40001
1.40001
1.40001
1.40001
1.40001
1.40001
1.40001
1.40001
1.40001
1.40001
1.40001
1.40001
1.40001
1.40001
1.40001
1.40001
1.40001
1.40001
1.40001
1.40001
1.40001
1.40001
1.40001
1.40001
1.40001
1.40001
1.40001
1.40001
1.40001
1.40001
1.40001
1.40001
1.40001
1.40001
1.40001
1.40001
1.40001
1.40001
1.40001
1.40001
1.40001
1.40001
1.40001
1.40001
1.40001
1.40001
1.40001
1.40001
1.40001
1.40001
1.40001
1.40001
1.40001
1.40001
1.40001
1.40001
1.40001
1.40001
1.40001
1.40001
1.40001
1.40001
1.40001
1.40001
1.40001
1.40001
1.40001
1.40001
1.40001
1.40001
1.40001
1.40001
1.40001
1.40001
1.40001
1.40001
1.40001
1.40001
1.40001
1.40001
1.40001
1.40001
1.40001
1.40001
1.40001
1.40001
1.40001
1.40001
1.40001
1.40001
1.40001
1.40001
1.40001
1.40001
1.40001
1.40001
1.40001
1.40001
1.40001
1.40001
1.40001
1.40001
1.40001
1.40001
1.40001
1.40001
1.40001
1.40001
1.40001
1.40001
1.40001
1.40001
1.40001
1.40001
1.40001
1.40001
1.40001
1.40001
1.40001
1.40001
1.40001
1.40001
1.40001
1.40001
1.40001
1.40001
1.40001
1.40001
1.40001
1.40001
1.40001
1.40001
1.40001
1.40001
1.40001
1.40001
1.40001
1.40001
1.40001
1.40001
1.40001
1.40001
1.40001
1.40001
1.40001
1.40001
1.40001
1.40001
1.40001
1.40001
1.40001
1.40001
1.40001
1.40001
1.40001
1.40001
1.40001
1.40001
1.40001
1.40001
1.40001
1.40001
1.40001
1.40001
1.40001
1.40001
1.40001
1.40001
1.40001
1.40001
1.40001
1.40001
1.40001
1.40001
1.40001
1.40001
1.40001
1.40001
1.40001
1.40001
1.40001
1.40001
1.40001
1.40001
1.40001
1.40001
1.40001
1.40001
1.40001
1.40001
1.40001
1.40001
1.40001
1.40001
1.40001
1.40001
1.40001
1.40001
1.40001
1.40001
1.40001
1.40001
1.40001
1.40001
1.40001
1.40001
1.40001
1.40001
1.40001
1.40001
1.40001
1.40001
1.40001
1.40001
1.40001
1.40001
1.40001
1.40001
1.40001
1.40001
1.40001
1.40001
1.40001
1.40001
1.40001
1.40001
1.40001
1.40001
1.40001
1.40001
1.40001
1.40001
1.40001
1.40001
1.40001
1.40001
1.40001
1.40001
1.40001
1.40001
1.40001
1.40001
1.40001
1.40001
1.40001
1.40001
1.40001
1.40001
1.40001
1.40001
1.40001
1.40001
1.40001
1.40001
1.40001
1.40001
1.40001
1.40001
1.40001
1.40001
1.40001
1.40001
1.40001
1.40001
1.40001
1.40001
1.40001
1.40001
1.40001
1.40001
1.40001
1.40001
1.40001
1.40001
1.40001
1.40001
1.40001
1.40001
1.40001
1.40001
1.40001
1.40001
1.40001
1.40001
1.40001
1.40001
1.40001
1.40001
1.40001
1.40001
1.40001
1.40001
1.40001
1.40001
1.40001
1.40001
1.40001
1.40001
1.40001
1.40001
1.40001
1.40001
1.40001
1.40001
1.40001
1.40001
1.40001
1.40001
1.40001
1.40001
1.40001
1.40001
1.40001
1.40001
1.40001
1.40001
1.40001
1.40001
1.40001
1.40001
1.40001
1.40001
1.40001
1.40001
1.40001
1.40001
1.40001
1.40001
1.40001
1.40001
1.40001
1.40001
1.40001
1.40001
1.40001
1.40001
1.40001
1.40001
1.40001
1.40001
1.40001
1.40001
1.40001
1.40001
1.40001
1.40001
1.40001
1.40001
1.40001
1.40001
1.40001
1.40001
1.40001
1.40001
1.40001
1.40001
1.40001
1.40001
1.40001
1.40001
1.40001
1.40001
1.40001
1.40001
1.40001
1.40001
1.40001
1.40001
1.40001
1.40001
1.40001
1.40001
1.40001
1.40001
1.40001
1.40001
1.40001
1.40001
1.40001
1.40001
1.40001
1.40001
1.40001
1.40001
1.40001
1.40001
1.40001
1.40001
1.40001
1.40001
1.40001
1.40001
1.40001
1.40001
1.40001
1.40001
1.40001
1.40001
1.40001
1.40001
1.40001
1.40001
1.40001
1.40001
1.40001
1.40001
1.40001
1.40001
1.40001
1.40001
1.40001
1.40001
1.40001
1.40001
1.40001
1.40001
1.40001
1.40001
1.40001
1.40001
1.40001
1.40001
1.40001
1.40001
1.40001
1.40001
1.40001
1.40001
1.40001
1.40001
1.40001
1.40001
1.40001
1.40001
1.40001
1.40001
1.40001
1.40001
1.40001
1.40001
1.40001
1.40001
1.40001
1.40001
1.40001
1.40001
1.40001
1.40001
1.40001
1.40001
1.40001
1.40001
1.40001
1.40001
1.40001
1.40001
1.40001
1.40001
1.40001
1.40001
1.40001
1.40001
1.40001
1.40001
1.40001
1.40001
1.40001
1.40001
1.40001
1.40001
1.40001
1.40001
1.40001
1.40001
1.40001
1.40001
1.40001
1.40001
1.40001
1.40001
1.40001
1.40001
1.40001
1.40001
1.40001
1.40001
1.40001
1.40001
1.40001
1.40001
1.40001
1.40001
1.40001
1.40001
1.40001
1.40001
1.40001
1.40001
1.40001
1.40001
1.40001
1.40001
1.40001
1.40001
1.40001
1.40001
1.40001
1.40001
1.40001
1.40001
1.40001
1.40001
1.40001
1.40001
1.40001
1.40001
1.40001
1.40001
1.40001
1.40001
1.40001
1.40001
1.40001
1.40001
1.40001
1.40001
1.40001
1.40001
1.40001
1.40001
1.40001
1.40001
1.40001
1.40001
1.40001
1.40001
1.40001
1.40001
1.40001
1.40001
1.40001
1.40001
1.40001
1.40001
1.40001
1.40001
1.40001
1.40001
1.40001
1.40001
1.40001
1.40001
1.40001
1.40001
1.40001
1.40001
1.40001
1.40001
1.40001
1.40001
1.40001
1.40001
1.40001
1.40001
1.40001
1.40001
1.40001
1.40001
1.40001
1.40001
1.40001
1.40001
1.40001
1.40001
1.40001
1.40001
1.40001
1.40001
1.40001
1.40001
1.40001
1.40001
1.40001
1.40001
1.40001
1.40001
1.40001
1.40001
1.40001
1.40001
1.40001
1.40001
1.40001
1.40001
1.40001
1.40001
1.40001
1.40001
1.40001
1.40001
1.40001
1.40001
1.40001
1.40001
1.40001
1.40001
1.40001
1.40001
1.40001
1.40001
1.40001
1.40001
1.40001
1.40001
1.40001
1.40001
1.40001
1.40001
1.40001
1.40001
1.40001
1.40001
1.40001
1.40001
1.40001
1.40001
1.40001
1.40001
1.40001
1.40001
1.40001
1.40001
1.40001
1.40001
1.40001
1.40001
1.40001
1.40001
1.40001
1.40001
1.40001
1.40001
1.40001
1.40001
1.40001
1.40001
1.40001
1.40001
1.40001
1.40001
1.40001
1.40001
1.40001
1.40001
1.40001
1.40001
1.40001
1.40001
1.40001
1.40001
1.40001
1.40001
1.40001
1.40001
1.40001
1.40001
1.40001
1.40001
1.40001
1.40001
1.40001
1.40001
1.40001
1.40001
1.40001
1.40001
1.40001
1.40001
1.40001
1.40001
1.40001
1.40001
1.40001
1.40001
1.40001
1.40001
1.40001
1.40001
1.40001
1.40001
1.40001
1.40001
1.40001
1.40001
1.40001
1.40001
1.40001
1.40001
1.40001
1.40001
1.40001
1.40001
1.40001
1.40001
1.40001
1.40001
1.40001
1.40001
1.40001
1.40001
1.40001
1.40001
1.40001
1.40001
1.40001
1.40001
1.40001
1.40001
1.40001
1.40001
1.40001
1.40001
1.40001
1.40001
1.40001
1.40001
1.40001
1.40001
1.40001
1.40001
1.40001
1.40001
1.40001
1.40001
1.40001
1.40001
1.40001
1.40001
1.40001
1.40001
1.40001
1.40001
1.40001
1.40001
1.40001
1.40001
1.40001
1.40001
1.40001
1.40001
1.40001
1.40001
1.40001
1.40001
1.40001
1.40001
1.40001
1.40001
1.40001
1.40001
1.40001
1.40001
1.40001
1.40001
1.40001
1.40001
1.40001
1.40001
1.40001
1.40001
1.40001
1.40001
1.40001
1.40001
1.40001
1.40001
1.40001
1.40001
1.40001
1.40001
1.40001
1.40001
1.40001
1.40001
1.65759
2.01867
2.42764
2.85249
3.16579
3.51678
3.8188
4.00483
4.25591
4.35012
4.36085
4.33499
4.2308
4.03891
3.83308
3.58686
3.41527
3.38719
3.37103
3.33108
3.31735
3.33453
3.36824
3.40677
3.42893
3.42712
3.42326
3.42574
3.43486
3.44148
3.44243
3.44243
3.44472
3.45322
3.46176
3.4672
3.46978
3.46793
3.46394
3.46061
3.45696
3.45099
3.44583
3.44114
3.43637
3.4343
3.4358
3.44325
3.45178
3.45617
3.4583
3.45992
3.46074
3.46128
3.46203
3.46351
3.46522
3.46532
3.46397
3.46088
3.45596
3.44881
3.44138
3.43806
3.43691
3.43727
3.43538
3.42741
3.41676
3.40827
3.39486
3.37255
3.34834
3.33586
3.33129
3.32809
3.32603
3.32447
3.32463
3.32735
1.3998
1.4106
1.42453
1.47981
1.61061
1.74929
1.99181
2.26004
2.56711
2.88157
3.13289
3.39997
3.50616
3.59798
3.67446
3.64479
3.61135
3.57156
3.55648
3.5228
3.45957
3.43193
3.41567
3.39891
3.39137
3.39256
3.39885
3.40889
3.42353
3.43334
3.43453
3.43245
3.42748
3.427
3.42987
3.43464
3.44201
3.44983
3.453
3.45342
3.45357
3.45376
3.45215
3.44988
3.44759
3.4447
3.44425
3.44575
3.44571
3.44464
3.44214
3.43937
3.43965
3.44193
3.44583
3.45111
3.45685
3.46042
3.46117
3.46115
3.45993
3.4567
3.45066
3.44548
3.4432
3.44043
3.43519
3.42532
3.41171
3.39693
3.37757
3.35469
3.3383
3.33365
3.33202
3.33
3.32736
3.32603
3.325
3.32095
1.40001
1.40001
1.40001
1.4
1.39998
1.39999
1.40544
1.4282
1.48663
1.63774
1.87743
2.24612
2.73653
3.23591
3.52038
3.63834
3.73427
3.73523
3.70815
3.65709
3.5804
3.45486
3.37334
3.3666
3.36137
3.36407
3.37234
3.39132
3.40907
3.41722
3.41735
3.41432
3.40781
3.40026
3.40132
3.40587
3.41107
3.41825
3.42497
3.4289
3.43301
3.4375
3.44045
3.44029
3.44019
3.44217
3.44403
3.44412
3.44187
3.43698
3.42919
3.42276
3.4204
3.42114
3.42318
3.42709
3.43416
3.44346
3.45099
3.45383
3.4541
3.45215
3.44701
3.44251
3.44017
3.43727
3.43152
3.42184
3.40784
3.38847
3.36527
3.34057
3.33194
3.3305
3.32932
3.32851
3.32725
3.32507
3.32072
3.31339
1.40001
1.40001
1.40001
1.40001
1.40001
1.40001
1.40001
1.39998
1.40001
1.39988
1.40222
1.41967
1.53066
1.76014
2.20759
2.67502
3.1195
3.42234
3.4744
3.50965
3.47955
3.48911
3.46875
3.45167
3.4354
3.4043
3.3938
3.37491
3.36877
3.37303
3.37208
3.37254
3.37383
3.3771
3.38261
3.38739
3.38975
3.3899
3.38806
3.38863
3.39345
3.39894
3.40586
3.41413
3.42293
3.42995
3.43221
3.43147
3.42803
3.42319
3.41848
3.41173
3.40675
3.40766
3.41011
3.41302
3.41604
3.42054
3.42649
3.43099
3.4326
3.43306
3.43265
3.43142
3.42955
3.42605
3.41985
3.41049
3.39571
3.37554
3.34985
3.32687
3.32283
3.3224
3.32262
3.32372
3.32393
3.32161
3.3164
3.30507
1.40001
1.40001
1.40001
1.40001
1.40001
1.40001
1.40001
1.4
1.4
1.4
1.4
1.40001
1.3999
1.401
1.42454
1.54917
1.78015
2.23165
2.70173
3.15674
3.40107
3.50009
3.55414
3.53506
3.50754
3.46436
3.38867
3.32441
3.32537
3.33884
3.35002
3.35018
3.35361
3.3572
3.36098
3.36602
3.37346
3.37529
3.3722
3.37069
3.37521
3.37723
3.37853
3.38126
3.3864
3.39261
3.39735
3.40207
3.40529
3.40603
3.40588
3.40377
3.40236
3.40358
3.40572
3.40649
3.4075
3.4103
3.4121
3.412
3.41148
3.41004
3.40773
3.40612
3.4044
3.40088
3.39548
3.38748
3.37427
3.35683
3.33089
3.31259
3.31
3.3093
3.31068
3.31586
3.31661
3.31356
3.30875
3.29693
1.40001
1.40001
1.40001
1.40001
1.40001
1.40001
1.40001
1.40001
1.40001
1.40001
1.4
1.4
1.4
1.4
1.40002
1.4
1.40167
1.43411
1.57525
1.82807
2.29246
2.71561
3.18265
3.31576
3.37709
3.37929
3.35835
3.35696
3.36594
3.37981
3.38249
3.37678
3.36548
3.35399
3.34825
3.35006
3.3557
3.35999
3.36296
3.37118
3.37403
3.37482
3.37255
3.36769
3.36476
3.36371
3.36522
3.3724
3.38099
3.38771
3.39241
3.39589
3.39878
3.40178
3.40412
3.40524
3.40637
3.40687
3.40559
3.40209
3.39742
3.39253
3.38861
3.38557
3.38327
3.37974
3.3744
3.36621
3.35416
3.33729
3.31071
3.29619
3.29436
3.29369
3.29489
3.30149
3.30362
3.30134
3.29766
3.28507
1.40001
1.40001
1.40001
1.40001
1.40001
1.40001
1.40001
1.40001
1.40001
1.40001
1.40001
1.40001
1.40001
1.4
1.4
1.4
1.4
1.39999
1.40021
1.40346
1.45102
1.59152
1.88866
2.35948
2.78504
3.21877
3.34271
3.4282
3.44983
3.43615
3.42225
3.38741
3.33758
3.30966
3.31556
3.33299
3.35141
3.36983
3.38298
3.38818
3.38787
3.37908
3.36778
3.36048
3.35684
3.35504
3.3571
3.36312
3.36612
3.36913
3.37406
3.38059
3.38899
3.39732
3.40228
3.40367
3.40326
3.40091
3.39723
3.39243
3.38654
3.3825
3.38084
3.38007
3.37872
3.37499
3.36856
3.35913
3.34802
3.33125
3.30456
3.28634
3.2835
3.28254
3.28263
3.28682
3.2904
3.28848
3.28437
3.27234
1.40001
1.40001
1.40001
1.40001
1.40001
1.40001
1.40001
1.40001
1.40001
1.40001
1.40001
1.40001
1.40001
1.40001
1.40001
1.40001
1.4
1.4
1.4
1.40001
1.39999
1.40039
1.40644
1.47925
1.63883
1.98458
2.46858
2.91229
3.2604
3.2897
3.34453
3.3472
3.33141
3.32828
3.33354
3.34486
3.35845
3.37617
3.38497
3.38698
3.38808
3.38871
3.38776
3.38632
3.38391
3.37849
3.37734
3.37516
3.37152
3.36809
3.36786
3.37033
3.37433
3.37935
3.38466
3.38785
3.38869
3.38939
3.39031
3.3905
3.38835
3.38611
3.3855
3.38526
3.38302
3.37816
3.37074
3.36032
3.34797
3.33142
3.30573
3.28336
3.2769
3.27545
3.27452
3.27456
3.27653
3.27505
3.27081
3.26201
1.40001
1.40001
1.40001
1.40001
1.40001
1.40001
1.40001
1.40001
1.40001
1.40001
1.40001
1.40001
1.40001
1.40001
1.40001
1.40001
1.40001
1.40001
1.40001
1.40001
1.4
1.4
1.4
1.40005
1.40104
1.41445
1.51722
1.72449
2.13771
2.57516
3.01956
3.2879
3.34876
3.39415
3.38616
3.37911
3.3676
3.35478
3.35094
3.35735
3.36939
3.37796
3.38533
3.39247
3.40185
3.41257
3.41571
3.41353
3.40455
3.39133
3.37993
3.37406
3.3726
3.3724
3.37448
3.37691
3.37857
3.38047
3.38168
3.38327
3.38548
3.38851
3.39046
3.38991
3.38674
3.38103
3.37299
3.36193
3.34763
3.32936
3.3039
3.27952
3.26943
3.26836
3.26668
3.26525
3.26602
3.26572
3.26273
3.25694
1.40001
1.40001
1.40001
1.40001
1.40001
1.40001
1.40001
1.40001
1.40001
1.40001
1.40001
1.40001
1.40001
1.40001
1.40001
1.40001
1.40001
1.40001
1.40001
1.40001
1.40001
1.4
1.4
1.4
1.4
1.39999
1.40022
1.40279
1.43529
1.56915
1.81764
2.28971
2.74259
3.17428
3.31279
3.31881
3.37232
3.37362
3.35445
3.3457
3.34006
3.34061
3.35174
3.3716
3.39586
3.41541
3.42314
3.42392
3.42062
3.4142
3.40977
3.40562
3.40047
3.39444
3.38791
3.38267
3.38197
3.3837
3.38494
3.38443
3.38392
3.38492
3.38742
3.38706
3.38379
3.37837
3.37089
3.35915
3.34151
3.32146
3.30145
3.28684
3.27707
3.26797
3.26418
3.26254
3.26264
3.26218
3.26004
3.25549
1.40001
1.40001
1.40001
1.40001
1.40001
1.40001
1.40001
1.40001
1.40001
1.40001
1.40001
1.40001
1.40001
1.40001
1.40001
1.40001
1.40001
1.40001
1.40001
1.40001
1.40001
1.40001
1.40001
1.40001
1.40001
1.4
1.4
1.40001
1.4
1.40072
1.40656
1.47666
1.66881
2.03635
2.49382
2.90796
3.25732
3.38883
3.38897
3.39735
3.36851
3.3494
3.34654
3.35046
3.36725
3.38265
3.39465
3.40243
3.40576
3.408
3.41209
3.41875
3.42093
3.42062
3.41771
3.41217
3.40777
3.40587
3.40292
3.39685
3.39103
3.38927
3.38897
3.38735
3.38271
3.37522
3.36636
3.35399
3.3342
3.31128
3.29656
3.28738
3.28166
3.27625
3.26938
3.26523
3.26396
3.26167
3.25951
3.25655
1.40001
1.40001
1.40001
1.40001
1.40001
1.40001
1.40001
1.40001
1.40001
1.40001
1.40001
1.40001
1.40001
1.40001
1.40001
1.40001
1.40001
1.40001
1.40001
1.40001
1.40001
1.40001
1.40001
1.40001
1.40001
1.40001
1.4
1.4
1.4
1.4
1.4
1.40016
1.4026
1.42442
1.5573
1.80666
2.26126
2.72192
3.13167
3.33988
3.36601
3.39069
3.40915
3.3975
3.38813
3.38314
3.37451
3.37132
3.37095
3.37251
3.38251
3.40176
3.42173
3.42902
3.42795
3.42626
3.4252
3.42707
3.4276
3.42297
3.41419
3.40664
3.40055
3.39496
3.38816
3.37919
3.36913
3.35606
3.33618
3.30912
3.29239
3.28675
3.28455
3.2818
3.27741
3.27056
3.26411
3.26
3.25802
3.2563
1.40001
1.40001
1.40001
1.40001
1.40001
1.40001
1.40001
1.40001
1.40001
1.40001
1.40001
1.40001
1.40001
1.40001
1.40001
1.40001
1.40001
1.40001
1.40001
1.40001
1.40001
1.40001
1.40001
1.40001
1.40001
1.40001
1.40001
1.40001
1.40001
1.40001
1.4
1.4
1.40001
1.4
1.40095
1.40797
1.47442
1.68867
2.06516
2.54066
2.95618
3.25701
3.39455
3.43035
3.44215
3.44194
3.42397
3.39669
3.37723
3.36914
3.37246
3.38578
3.40049
3.40916
3.41308
3.42025
3.42817
3.43215
3.43355
3.42989
3.4242
3.42018
3.41717
3.41347
3.40742
3.39801
3.38585
3.36878
3.34398
3.31216
3.29313
3.28946
3.29005
3.29091
3.28802
3.28125
3.26748
3.25793
3.25451
3.25131
1.40001
1.40001
1.40001
1.40001
1.40001
1.40001
1.40001
1.40001
1.40001
1.40001
1.40001
1.40001
1.40001
1.40001
1.40001
1.40001
1.40001
1.40001
1.40001
1.40001
1.40001
1.40001
1.40001
1.40001
1.40001
1.40001
1.40001
1.40001
1.40001
1.40001
1.40001
1.4
1.4
1.4
1.40001
1.4
1.40023
1.40406
1.43214
1.60279
1.92321
2.38997
2.83364
3.19575
3.36785
3.4269
3.44094
3.4504
3.4409
3.42305
3.41261
3.41032
3.40888
3.40899
3.41088
3.4114
3.4138
3.41647
3.41674
3.41744
3.41931
3.4209
3.42042
3.41925
3.41532
3.40753
3.39841
3.38472
3.36295
3.32593
3.29991
3.29652
3.29723
3.30025
3.29852
3.29332
3.28108
3.26269
3.25182
3.24793
1.40001
1.40001
1.40001
1.40001
1.40001
1.40001
1.40001
1.40001
1.40001
1.40001
1.40001
1.40001
1.40001
1.40001
1.40001
1.40001
1.40001
1.40001
1.40001
1.40001
1.40001
1.40001
1.40001
1.40001
1.40001
1.40001
1.40001
1.40001
1.40001
1.40001
1.40001
1.40001
1.40001
1.40001
1.40001
1.4
1.4
1.4
1.40003
1.40238
1.41746
1.52587
1.84496
2.32098
2.75075
3.0957
3.32579
3.41853
3.42985
3.43584
3.45915
3.4704
3.46627
3.45486
3.44212
3.43252
3.42499
3.41674
3.41112
3.41049
3.41368
3.4158
3.41539
3.41342
3.41195
3.41017
3.40376
3.39156
3.37213
3.3392
3.30913
3.30281
3.30159
3.30211
3.30056
3.29792
3.2939
3.28305
3.26441
3.24993
1.40001
1.40001
1.40001
1.40001
1.40001
1.40001
1.40001
1.40001
1.40001
1.40001
1.40001
1.40001
1.40001
1.40001
1.40001
1.40001
1.40001
1.40001
1.40001
1.40001
1.40001
1.40001
1.40001
1.40001
1.40001
1.40001
1.40001
1.40001
1.40001
1.40001
1.40001
1.40001
1.40001
1.40001
1.40001
1.40001
1.4
1.4
1.4
1.40001
1.4
1.4011
1.41424
1.48609
1.78447
2.24702
2.72509
3.05059
3.26018
3.34874
3.41888
3.46522
3.4771
3.47476
3.46563
3.46249
3.46251
3.45468
3.43861
3.42762
3.42547
3.42417
3.42159
3.41697
3.40971
3.4053
3.39995
3.38978
3.37469
3.34917
3.31737
3.30359
3.30022
3.29905
3.29888
3.29787
3.29696
3.29608
3.28874
3.26779
1.40001
1.40001
1.40001
1.40001
1.40001
1.40001
1.40001
1.40001
1.40001
1.40001
1.40001
1.40001
1.40001
1.40001
1.40001
1.40001
1.40001
1.40001
1.40001
1.40001
1.40001
1.40001
1.40001
1.40001
1.40001
1.40001
1.40001
1.40001
1.40001
1.40001
1.40001
1.40001
1.40001
1.40001
1.40001
1.40001
1.40001
1.40001
1.4
1.4
1.4
1.40001
1.40001
1.4005
1.41305
1.46907
1.71266
2.19723
2.78549
3.05052
3.21808
3.34502
3.41651
3.42019
3.42641
3.44387
3.45932
3.46269
3.45762
3.44967
3.45205
3.45486
3.45154
3.43836
3.42081
3.41039
3.40152
3.39087
3.37708
3.35662
3.32921
3.30688
3.29639
3.29037
3.28704
3.28623
3.29126
3.29881
3.29824
3.28811
1.40001
1.40001
1.40001
1.40001
1.40001
1.40001
1.40001
1.40001
1.40001
1.40001
1.40001
1.40001
1.40001
1.40001
1.40001
1.40001
1.40001
1.40001
1.40001
1.40001
1.40001
1.40001
1.40001
1.40001
1.40001
1.40001
1.40001
1.40001
1.40001
1.40001
1.40001
1.40001
1.40001
1.40001
1.40001
1.40001
1.40001
1.40001
1.40001
1.40001
1.4
1.4
1.4
1.4
1.40001
1.40031
1.40953
1.46994
1.71171
2.21341
2.78686
3.18164
3.29662
3.34835
3.3405
3.3618
3.38876
3.41487
3.43189
3.44693
3.46058
3.46733
3.46657
3.45717
3.44139
3.42574
3.40972
3.39501
3.38017
3.36425
3.34634
3.32628
3.30603
3.29069
3.28332
3.28064
3.27965
3.28646
3.30341
3.30453
1.40001
1.40001
1.40001
1.40001
1.40001
1.40001
1.40001
1.40001
1.40001
1.40001
1.40001
1.40001
1.40001
1.40001
1.40001
1.40001
1.40001
1.40001
1.40001
1.40001
1.40001
1.40001
1.40001
1.40001
1.40001
1.40001
1.40001
1.40001
1.40001
1.40001
1.40001
1.40001
1.40001
1.40001
1.40001
1.40001
1.40001
1.40001
1.40001
1.40001
1.40001
1.40001
1.40001
1.4
1.4
1.4
1.40001
1.4004
1.40953
1.48754
1.73177
2.23278
2.83856
3.26191
3.34443
3.37644
3.36519
3.37468
3.39127
3.40458
3.42047
3.43557
3.44628
3.4463
3.43786
3.42353
3.40784
3.39078
3.37685
3.36336
3.35102
3.34059
3.33171
3.3167
3.29398
3.28
3.27865
3.27951
3.29006
3.30327
1.40001
1.40001
1.40001
1.40001
1.40001
1.40001
1.40001
1.40001
1.40001
1.40001
1.40001
1.40001
1.40001
1.40001
1.40001
1.40001
1.40001
1.40001
1.40001
1.40001
1.40001
1.40001
1.40001
1.40001
1.40001
1.40001
1.40001
1.40001
1.40001
1.40001
1.40001
1.40001
1.40001
1.40001
1.40001
1.40001
1.40001
1.40001
1.40001
1.40001
1.40001
1.40001
1.40001
1.40001
1.40001
1.4
1.4
1.4
1.40001
1.40068
1.41058
1.50033
1.78329
2.35122
2.91162
3.26167
3.39774
3.42773
3.43388
3.41885
3.41789
3.42107
3.42428
3.42746
3.42302
3.41299
3.39887
3.37854
3.35393
3.341
3.33719
3.3408
3.3459
3.34368
3.33306
3.30858
3.2826
3.27541
3.27514
3.28745
1.40001
1.40001
1.40001
1.40001
1.40001
1.40001
1.40001
1.40001
1.40001
1.40001
1.40001
1.40001
1.40001
1.40001
1.40001
1.40001
1.40001
1.40001
1.40001
1.40001
1.40001
1.40001
1.40001
1.40001
1.40001
1.40001
1.40001
1.40001
1.40001
1.40001
1.40001
1.40001
1.40001
1.40001
1.40001
1.40001
1.40001
1.40001
1.40001
1.40001
1.40001
1.40001
1.40001
1.40001
1.40001
1.40001
1.40001
1.4
1.4
1.4
1.40001
1.40103
1.4149
1.55039
1.8978
2.46098
3.00746
3.32366
3.4349
3.45448
3.46856
3.46887
3.45994
3.43917
3.43017
3.42213
3.40738
3.38165
3.34696
3.31782
3.30913
3.31053
3.32831
3.34692
3.34851
3.33987
3.31103
3.27916
3.27226
3.2764
1.40001
1.40001
1.40001
1.40001
1.40001
1.40001
1.40001
1.40001
1.40001
1.40001
1.40001
1.40001
1.40001
1.40001
1.40001
1.40001
1.40001
1.40001
1.40001
1.40001
1.40001
1.40001
1.40001
1.40001
1.40001
1.40001
1.40001
1.40001
1.40001
1.40001
1.40001
1.40001
1.40001
1.40001
1.40001
1.40001
1.40001
1.40001
1.40001
1.40001
1.40001
1.40001
1.40001
1.40001
1.40001
1.40001
1.40001
1.40001
1.40001
1.4
1.4
1.4
1.40004
1.40254
1.42649
1.62306
2.08622
2.65768
3.07366
3.32651
3.43642
3.45718
3.45634
3.45184
3.44812
3.44723
3.44166
3.42514
3.38395
3.32822
3.29813
3.29158
3.29197
3.31296
3.3421
3.34442
3.33598
3.31237
3.28127
3.27508
1.40001
1.40001
1.40001
1.40001
1.40001
1.40001
1.40001
1.40001
1.40001
1.40001
1.40001
1.40001
1.40001
1.40001
1.40001
1.40001
1.40001
1.40001
1.40001
1.40001
1.40001
1.40001
1.40001
1.40001
1.40001
1.40001
1.40001
1.40001
1.40001
1.40001
1.40001
1.40001
1.40001
1.40001
1.40001
1.40001
1.40001
1.40001
1.40001
1.40001
1.40001
1.40001
1.40001
1.40001
1.40001
1.40001
1.40001
1.40001
1.40001
1.40001
1.40001
1.4
1.4
1.4
1.40013
1.40647
1.45431
1.73684
2.33099
2.92941
3.19802
3.32097
3.38134
3.37491
3.3782
3.40631
3.44192
3.44535
3.43191
3.39771
3.33527
3.28765
3.2786
3.27897
3.30005
3.33369
3.34042
3.33633
3.31713
3.28846
1.40001
1.40001
1.40001
1.40001
1.40001
1.40001
1.40001
1.40001
1.40001
1.40001
1.40001
1.40001
1.40001
1.40001
1.40001
1.40001
1.40001
1.40001
1.40001
1.40001
1.40001
1.40001
1.40001
1.40001
1.40001
1.40001
1.40001
1.40001
1.40001
1.40001
1.40001
1.40001
1.40001
1.40001
1.40001
1.40001
1.40001
1.40001
1.40001
1.40001
1.40001
1.40001
1.40001
1.40001
1.40001
1.40001
1.40001
1.40001
1.40001
1.40001
1.40001
1.40001
1.40001
1.4
1.4
1.40001
1.40048
1.41716
1.53365
1.943
2.58026
3.19089
3.38076
3.33356
3.30066
3.30589
3.34524
3.41249
3.43677
3.42596
3.39472
3.33939
3.28654
3.27365
3.27567
3.29367
3.32475
3.3323
3.32914
3.31297
1.40001
1.40001
1.40001
1.40001
1.40001
1.40001
1.40001
1.40001
1.40001
1.40001
1.40001
1.40001
1.40001
1.40001
1.40001
1.40001
1.40001
1.40001
1.40001
1.40001
1.40001
1.40001
1.40001
1.40001
1.40001
1.40001
1.40001
1.40001
1.40001
1.40001
1.40001
1.40001
1.40001
1.40001
1.40001
1.40001
1.40001
1.40001
1.40001
1.40001
1.40001
1.40001
1.40001
1.40001
1.40001
1.40001
1.40001
1.40001
1.40001
1.40001
1.40001
1.40001
1.40001
1.40001
1.4
1.4
1.4
1.40008
1.40261
1.44632
1.66798
2.2427
2.88811
3.33108
3.37273
3.32149
3.29076
3.31062
3.37586
3.41626
3.41139
3.3871
3.34579
3.2974
3.27218
3.27042
3.27733
3.29859
3.32082
3.31989
1.40001
1.40001
1.40001
1.40001
1.40001
1.40001
1.40001
1.40001
1.40001
1.40001
1.40001
1.40001
1.40001
1.40001
1.40001
1.40001
1.40001
1.40001
1.40001
1.40001
1.40001
1.40001
1.40001
1.40001
1.40001
1.40001
1.40001
1.40001
1.40001
1.40001
1.40001
1.40001
1.40001
1.40001
1.40001
1.40001
1.40001
1.40001
1.40001
1.40001
1.40001
1.40001
1.40001
1.40001
1.40001
1.40001
1.40001
1.40001
1.40001
1.40001
1.40001
1.40001
1.40001
1.40001
1.40001
1.40001
1.4
1.4
1.40001
1.40043
1.41082
1.52068
1.91626
2.62683
3.22098
3.36184
3.33705
3.28589
3.29243
3.3351
3.3824
3.38923
3.37768
3.35388
3.31406
3.27804
3.26763
3.27029
3.28582
3.31361
1.40001
1.40001
1.40001
1.40001
1.40001
1.40001
1.40001
1.40001
1.40001
1.40001
1.40001
1.40001