/*--------------------------------*- C++ -*----------------------------------*\
| =========                 |                                                 |
| \\      /  F ield         | OpenFOAM: The Open Source CFD Toolbox           |
|  \\    /   O peration     | Version:  2206                                  |
|   \\  /    A nd           | Website:  www.openfoam.com                      |
|    \\/     M anipulation  |                                                 |
\*---------------------------------------------------------------------------*/
FoamFile
{
    version     2.0;
    format      ascii;
    arch        "LSB;label=32;scalar=64";
    class       volScalarField;
    location    "0.2";
    object      rho;
}
// * * * * * * * * * * * * * * * * * * * * * * * * * * * * * * * * * * * * * //

dimensions      [1 -3 0 0 0 0 0];

internalField   nonuniform List<scalar> 
4800
(
1.40001
1.40001
1.40001
1.40001
1.40001
1.40001
1.40001
1.40001
1.40001
1.40001
1.40001
1.40001
1.40001
1.40001
1.40001
1.40001
1.40001
1.40001
1.40001
1.40001
1.40001
1.40001
1.40001
1.40001
1.40001
1.40001
1.40001
1.40001
1.40001
1.40001
1.40001
1.40001
1.40001
1.40001
1.40001
1.40001
1.40001
1.40001
1.40001
1.40001
1.40001
1.40001
1.40001
1.40001
1.40001
1.40001
1.40001
1.40001
1.40001
1.40001
1.40001
1.40001
1.40001
1.40001
1.40001
1.40001
1.40001
1.40001
1.40001
1.40001
1.40001
1.40001
1.40001
1.40001
1.40001
1.40001
1.40001
1.40001
1.40001
1.40001
1.40001
1.40001
1.40001
1.40001
1.40001
1.40001
1.40001
1.40001
1.40001
1.40001
1.40001
1.40001
1.40001
1.40001
1.40001
1.40001
1.40001
1.40001
1.40001
1.40001
1.40001
1.40001
1.40001
1.40001
1.40001
1.40001
1.40001
1.40001
1.40001
1.40001
1.40001
1.40001
1.40001
1.40001
1.40001
1.40001
1.40001
1.40001
1.40001
1.40001
1.40001
1.40001
1.40001
1.40001
1.40001
1.40001
1.40001
1.40001
1.40001
1.40001
1.40001
1.40001
1.40001
1.40001
1.40001
1.40001
1.40001
1.40001
1.40001
1.40001
1.40001
1.40001
1.40001
1.40001
1.40001
1.40001
1.40001
1.40001
1.40001
1.40001
1.40001
1.40001
1.40001
1.40001
1.40001
1.40001
1.40001
1.40001
1.40001
1.40001
1.40001
1.40001
1.40001
1.40001
1.40001
1.40001
1.40001
1.40001
1.40001
1.40001
1.40001
1.40001
1.40001
1.40001
1.40001
1.40001
1.40001
1.40001
1.40001
1.40001
1.40001
1.40001
1.40001
1.40001
1.40001
1.40001
1.40001
1.40001
1.40001
1.40001
1.40001
1.40001
1.40001
1.40001
1.40001
1.40001
1.40001
1.40001
1.40001
1.40001
1.40001
1.40001
1.40001
1.40001
1.40001
1.40001
1.40001
1.40001
1.40001
1.40001
1.40001
1.40001
1.40001
1.40001
1.40001
1.40001
1.40001
1.40001
1.40001
1.40001
1.40001
1.40001
1.40001
1.40001
1.40001
1.40001
1.40001
1.40001
1.40001
1.40001
1.40001
1.40001
1.40001
1.40001
1.40001
1.40001
1.40001
1.40001
1.40001
1.40001
1.40001
1.40001
1.40001
1.40001
1.40001
1.40001
1.40001
1.40001
1.40001
1.40001
1.40001
1.40001
1.40001
1.40001
1.40001
1.40001
1.40001
1.40001
1.40001
1.40001
1.40001
1.40001
1.40001
1.40001
1.40001
1.40001
1.40001
1.40001
1.40001
1.40001
1.40001
1.40001
1.40001
1.40001
1.40001
1.40001
1.40001
1.40001
1.40001
1.40001
1.40001
1.40001
1.40001
1.40001
1.40001
1.40001
1.40001
1.40001
1.40001
1.40001
1.40001
1.40001
1.40001
1.40001
1.40001
1.40001
1.40001
1.40001
1.40001
1.40001
1.40001
1.40001
1.40001
1.40001
1.40001
1.40001
1.40001
1.40001
1.40001
1.40001
1.40001
1.40001
1.40001
1.40001
1.40001
1.40001
1.40001
1.40001
1.40001
1.40001
1.40001
1.40001
1.40001
1.40001
1.40001
1.40001
1.40001
1.40001
1.40001
1.40001
1.40001
1.40001
1.40001
1.40001
1.40001
1.40001
1.40001
1.40001
1.40001
1.40001
1.40001
1.40001
1.40001
1.40001
1.40001
1.40001
1.40001
1.40001
1.40001
1.40001
1.40001
1.40001
1.40001
1.40001
1.40001
1.40001
1.40001
1.40001
1.40001
1.40001
1.40001
1.40001
1.40001
1.40001
1.40001
1.40001
1.40001
1.40001
1.40001
1.40001
1.40001
1.40001
1.40001
1.40001
1.40001
1.40001
1.40001
1.40001
1.40001
1.40001
1.40001
1.40001
1.40001
1.40001
1.40001
1.40001
1.40001
1.40001
1.40001
1.40001
1.40001
1.40001
1.40001
1.40001
1.40001
1.40001
1.40001
1.40001
1.40001
1.40001
1.40001
1.40001
1.40001
1.40001
1.40001
1.40001
1.40001
1.40001
1.40001
1.40001
1.40001
1.40001
1.40001
1.40001
1.40001
1.40001
1.40001
1.40001
1.40001
1.40001
1.40001
1.40001
1.40001
1.40001
1.40001
1.40001
1.40001
1.40001
1.40001
1.40001
1.40001
1.40001
1.40001
1.40001
1.40001
1.40001
1.40001
1.40001
1.40001
1.40001
1.40001
1.40001
1.40001
1.40001
1.40001
1.40001
1.40001
1.40001
1.40001
1.40001
1.40001
1.40001
1.40001
1.40001
1.40001
1.40001
1.40001
1.40001
1.40001
1.40001
1.40001
1.40001
1.40001
1.40001
1.40001
1.40001
1.40001
1.40001
1.40001
1.40001
1.40001
1.40001
1.40001
1.40001
1.40001
1.40001
1.40001
1.40001
1.40001
1.40001
1.40001
1.40001
1.40001
1.40001
1.40001
1.40001
1.40001
1.40001
1.40001
1.40001
1.40001
1.40001
1.40001
1.40001
1.40001
1.40001
1.40001
1.40001
1.40001
1.40001
1.40001
1.40001
1.40001
1.40001
1.40001
1.40001
1.40001
1.40001
1.40001
1.40001
1.40001
1.40001
1.40001
1.40001
1.40001
1.40001
1.40001
1.40001
1.40001
1.40001
1.40001
1.40001
1.40001
1.40001
1.40001
1.40001
1.40001
1.40001
1.40001
1.40001
1.40001
1.40001
1.40001
1.40001
1.40001
1.40001
1.40001
1.40001
1.40001
1.40001
1.40001
1.40001
1.40001
1.40001
1.40001
1.40001
1.40001
1.40001
1.40001
1.40001
1.40001
1.40001
1.40001
1.40001
1.40001
1.40001
1.40001
1.40001
1.40001
1.40001
1.40001
1.40001
1.40001
1.40001
1.40001
1.40001
1.40001
1.40001
1.40001
1.40001
1.40001
1.40001
1.40001
1.40001
1.40001
1.40001
1.40001
1.40001
1.40001
1.40001
1.40001
1.40001
1.40001
1.40001
1.40001
1.40001
1.40001
1.40001
1.40001
1.40001
1.40001
1.40001
1.40001
1.40001
1.40001
1.40001
1.40001
1.40001
1.40001
1.40001
1.40001
1.40001
1.40001
1.40001
1.40001
1.40001
1.40001
1.40001
1.40001
1.40001
1.40001
1.40001
1.40001
1.40001
1.40001
1.40001
1.40001
1.40001
1.40001
1.40001
1.40001
1.40001
1.40001
1.40001
1.40001
1.40001
1.40001
1.40001
1.40001
1.40001
1.40001
1.40001
1.40001
1.40001
1.40001
1.40001
1.40001
1.40001
1.40001
1.40001
1.40001
1.40001
1.40001
1.40001
1.40001
1.40001
1.40001
1.40001
1.40001
1.40001
1.40001
1.40001
1.40001
1.40001
1.40001
1.40001
1.40001
1.40001
1.40001
1.40001
1.40001
1.40001
1.40001
1.40001
1.40001
1.40001
1.40001
1.40001
1.40001
1.40001
1.40001
1.40001
1.40001
1.40001
1.40001
1.40001
1.40001
1.40001
1.40001
1.40001
1.40001
1.40001
1.40001
1.40001
1.40001
1.40001
1.40001
1.40001
1.40001
1.40001
1.40001
1.40001
1.40001
1.40001
1.40001
1.40001
1.40001
1.40001
1.40001
1.40001
1.40001
1.40001
1.40001
1.40001
1.40001
1.40001
1.40001
1.40001
1.40001
1.40001
1.40001
1.40001
1.40001
1.40001
1.40001
1.40001
1.40001
1.40001
1.40001
1.40001
1.40001
1.40001
1.40001
1.40001
1.40001
1.40001
1.40001
1.40001
1.40001
1.40001
1.40001
1.40001
1.40001
1.40001
1.40001
1.40001
1.40001
1.40001
1.40001
1.40001
1.40001
1.40001
1.40001
1.40001
1.40001
1.40001
1.40001
1.40001
1.40001
1.40001
1.40001
1.40001
1.40001
1.40001
1.40001
1.40001
1.40001
1.40001
1.40001
1.40001
1.40001
1.40001
1.40001
1.40001
1.40001
1.40001
1.40001
1.40001
1.40001
1.40001
1.40001
1.40001
1.40001
1.40001
1.40001
1.40001
1.40001
1.40001
1.40001
1.40001
1.40001
1.40001
1.40001
1.40001
1.40001
1.40001
1.40001
1.40001
1.40001
1.40001
1.40001
1.40001
1.40001
1.40001
1.40001
1.40001
1.40001
1.40001
1.40001
1.40001
1.40001
1.40001
1.40001
1.40001
1.40001
1.40001
1.40001
1.40001
1.40001
1.40001
1.40001
1.40001
1.40001
1.40001
1.40001
1.40001
1.40001
1.40001
1.40001
1.40001
1.40001
1.40001
1.40001
1.40001
1.40001
1.40001
1.40001
1.40001
1.40001
1.40001
1.40001
1.40001
1.40001
1.40001
1.40001
1.40001
1.40001
1.40001
1.40001
1.40001
1.40001
1.40001
1.40001
1.40001
1.40001
1.40001
1.40001
1.40001
1.40001
1.40001
1.40001
1.40001
1.40001
1.40001
1.40001
1.40001
1.40001
1.40001
1.40001
1.40001
1.40001
1.40001
1.40001
1.40001
1.40001
1.40001
1.40001
1.40001
1.40001
1.40001
1.40001
1.40001
1.40001
1.40001
1.40001
1.40001
1.40001
1.40001
1.40001
1.40001
1.40001
1.40001
1.40001
1.40001
1.40001
1.40001
1.40001
1.40001
1.40001
1.40001
1.40001
1.40001
1.40001
1.40001
1.40001
1.40001
1.40001
1.40001
1.40001
1.40001
1.40001
1.40001
1.40001
1.40001
1.40001
1.40001
1.40001
1.40001
1.40001
1.40001
1.40001
1.40001
1.40001
1.40001
1.40001
1.40001
1.40001
1.40001
1.40001
1.40001
1.40001
1.40001
1.40001
1.40001
1.40001
1.40001
1.40001
1.40001
1.40001
1.40001
1.40001
1.40001
1.40001
1.40001
1.40001
1.40001
1.40001
1.40001
1.40001
1.40001
1.40001
1.40001
1.40001
1.40001
1.40001
1.40001
1.40001
1.40001
1.40001
1.40001
1.40001
1.40001
1.40001
1.40001
1.40001
1.40001
1.40001
1.40001
1.40001
1.40001
1.40001
1.40001
1.40001
1.40001
1.40001
1.40001
1.40001
1.40001
1.40001
1.40001
1.40001
1.40001
1.40001
1.40001
1.40001
1.40001
1.40001
1.40001
1.40001
1.40001
1.40001
1.40001
1.40001
1.40001
1.40001
1.40001
1.40001
1.40001
1.40001
1.40001
1.40001
1.40001
1.40001
1.40001
1.40001
1.40001
1.40001
1.40001
1.40001
1.40001
1.40001
1.40001
1.40001
1.40001
1.40001
1.40001
1.40001
1.40001
1.40001
1.40001
1.40001
1.40001
1.40001
1.40001
1.40001
1.40001
1.40001
1.40001
1.40001
1.40001
1.40001
1.40001
1.40001
1.40001
1.40001
1.40001
1.40001
1.40001
1.40001
1.40001
1.40001
1.40001
1.40001
1.40001
1.40001
1.40001
1.40001
1.40001
1.40001
1.40001
1.40001
1.40001
1.40001
1.40001
1.40001
1.40001
1.40001
1.40001
1.40001
1.40001
1.40001
1.40001
1.40001
1.40001
1.40001
1.40001
1.40001
1.40001
1.40001
1.40001
1.40001
1.40001
1.40001
1.40001
1.40001
1.40001
1.40001
1.40001
1.40001
1.40001
1.40001
1.40001
1.40001
1.40001
1.40001
1.40001
1.40001
1.40001
1.40001
1.40001
1.40001
1.40001
1.40001
1.40001
1.40001
1.40001
1.40001
1.40001
1.40001
1.40001
1.40001
1.40001
1.40001
1.40001
1.40001
1.40001
1.40001
1.40001
1.40001
1.40001
1.40001
1.40001
1.40001
1.40001
1.40001
1.40001
1.40001
1.40001
1.40001
1.40001
1.40001
1.40001
1.40001
1.40001
1.40001
1.40001
1.40001
1.40001
1.40001
1.40001
1.40001
1.40001
1.40001
1.40001
1.40001
1.40001
1.40001
1.40001
1.40001
1.40001
1.40001
1.40001
1.40001
1.40001
1.40001
1.40001
1.40001
1.40001
1.40001
1.40001
1.40001
1.40001
1.40001
1.40001
1.40001
1.40001
1.40001
1.40001
1.40001
1.40001
1.40001
1.40001
1.40001
1.40001
1.40001
1.40001
1.40001
1.40001
1.40001
1.40001
1.40001
1.40001
1.40001
1.40001
1.40001
1.40001
1.40001
1.40001
1.40001
1.40001
1.40001
1.40001
1.40001
1.40001
1.40001
1.40001
1.40001
1.40001
1.40001
1.40001
1.40001
1.40001
1.40001
1.40001
1.40001
1.40001
1.40001
1.40001
1.40001
1.40001
1.40001
1.40001
1.40001
1.40001
1.40001
1.40001
1.40001
1.40001
1.40001
1.40001
1.40001
1.40001
1.40001
1.40001
1.40001
1.40001
1.40001
1.40001
1.40001
1.40001
1.40001
1.40001
1.40001
1.40001
1.40001
1.40001
1.40001
1.40001
1.40001
1.40001
1.40001
1.40001
1.40001
1.40001
1.40001
1.40001
1.40001
1.40001
1.40001
1.40001
1.40001
1.40001
1.40001
1.40001
1.40001
1.40001
1.40001
1.40001
1.40001
1.40001
1.40001
1.40001
1.40001
1.40001
1.40001
1.40001
1.40001
1.40001
1.40001
1.40001
1.40001
1.40001
1.40001
1.40001
1.40001
1.40001
1.40001
1.40001
1.40001
1.40001
1.40001
1.40001
1.40001
1.40001
1.40001
1.40001
1.40001
1.40001
1.40001
1.40001
1.40001
1.40001
1.40001
1.40001
1.40001
1.40001
1.40001
1.40001
1.40001
1.40001
1.40001
1.40001
1.40001
1.40001
1.40001
1.40001
1.40001
1.40001
1.40001
1.40001
1.40001
1.40001
1.40001
1.40001
1.40001
1.40001
1.40001
1.40001
1.40001
1.40001
1.40001
1.40001
1.40001
1.40001
1.40001
1.40001
1.40001
1.40001
1.40001
1.40001
1.40001
1.40001
1.40001
1.40001
1.40001
1.40001
1.40001
1.40001
1.40001
1.40001
1.40001
1.40001
1.40001
1.40001
1.40001
1.40001
1.40001
1.40001
1.40001
1.40001
1.40001
1.40001
1.40001
1.40001
1.40001
1.40001
1.40001
1.40001
1.40001
1.40001
1.40001
1.40001
1.40001
1.40001
1.40001
1.40001
1.40001
1.40001
1.40001
1.40001
1.40001
1.40001
1.40001
1.40001
1.40001
1.40001
1.40001
1.40001
1.40001
1.40001
1.40001
1.40001
1.40001
1.40001
1.40001
1.40001
1.40001
1.40001
1.40001
1.40001
1.40001
1.40001
1.40001
1.40001
1.40001
1.40001
1.40001
1.40001
1.40001
1.40001
1.40001
1.40001
1.40001
1.40001
1.40001
1.40001
1.40001
1.40001
1.40001
1.40001
1.40001
1.40001
1.40001
1.40001
1.40001
1.40001
1.40001
1.40001
1.40001
1.40001
1.40001
1.40001
1.40001
1.40001
1.40001
1.40001
1.40001
1.40001
1.40001
1.40001
1.40001
1.40001
1.40001
1.40001
1.40001
1.40001
1.40001
1.40001
1.40001
1.40001
1.40001
1.40001
1.40001
1.40001
1.40001
1.40001
1.40001
1.40001
1.40001
1.40001
1.40001
1.40001
1.40001
1.40001
1.40001
1.40001
1.40001
1.40001
1.40001
1.40001
1.40001
1.40001
1.40001
1.40001
1.40001
1.40001
1.40001
1.40001
1.40001
1.40001
1.40001
1.40001
1.40001
1.40001
1.40001
1.40001
1.40001
1.40001
1.40001
1.40001
1.40001
1.40001
1.40001
1.40001
1.40001
1.40001
1.40001
1.40001
1.40001
1.40001
1.40001
1.40001
1.40001
1.40001
1.40001
1.40001
1.40001
1.40001
1.40001
1.40001
1.40001
1.40001
1.40001
1.40001
1.40001
1.40001
1.40001
1.40001
1.40001
1.40001
1.40001
1.40001
1.40001
1.40001
1.40001
1.40001
1.40001
1.40001
1.40001
1.40001
1.40001
1.40001
1.40001
1.40001
1.40001
1.40001
1.40001
1.40001
1.40001
1.40001
1.40001
1.40001
1.40001
1.40001
1.40001
1.40001
1.40001
1.40001
1.40001
1.40001
1.40001
1.40001
1.40001
1.40001
1.40001
1.40001
1.40001
1.40001
1.40001
1.40001
1.40001
1.40001
1.40001
1.40001
1.40001
1.40001
1.40001
1.40001
1.40001
1.40001
1.40001
1.40001
1.40001
1.40001
1.40001
1.40001
1.40001
1.40001
1.40001
1.40001
1.40001
1.40001
1.40001
1.40001
1.40001
1.40001
1.40001
1.40001
1.40001
1.40001
1.40001
1.40001
1.40001
1.40001
1.40001
1.40001
1.40001
1.40001
1.40001
1.40001
1.40001
1.40001
1.40001
1.40001
1.40001
1.40001
1.40001
1.40001
1.40001
1.40001
1.40001
1.40001
1.40001
1.40001
1.40001
1.40001
1.40001
1.40001
1.40001
1.40001
1.40001
1.40001
1.40001
1.40001
1.40001
1.40001
1.40001
1.40001
1.40001
1.40001
1.40001
1.40001
1.40001
1.40001
1.40001
1.40001
1.40001
1.40001
1.40001
1.40001
1.65654
2.024
2.41067
2.85987
3.21002
3.48186
3.81204
4.11493
4.25182
4.36102
4.44243
4.43896
4.3534
4.16153
3.94038
3.69913
3.49372
3.40666
3.40159
3.38736
3.3601
3.36108
3.38059
3.41138
3.4517
3.4728
3.47756
3.47467
3.47301
3.47909
3.48523
3.48395
3.48069
3.48158
3.49411
3.50538
3.50933
3.51076
3.50887
3.50503
3.50113
3.49782
3.49383
3.4882
3.48122
3.47488
3.47213
3.47384
3.47911
3.48563
3.49079
3.49402
3.4967
3.49977
3.50266
3.50395
3.50391
3.50368
3.50352
3.50322
3.50217
3.49926
3.49365
3.48887
3.48647
3.48552
3.48567
3.48725
3.4899
3.49184
3.49322
3.49498
3.4964
3.49681
3.49651
3.49547
3.49524
3.49536
3.49602
3.49854
1.39961
1.40796
1.42864
1.46233
1.5862
1.75151
1.94129
2.21442
2.53629
2.84051
3.09899
3.39408
3.53929
3.58991
3.71589
3.71271
3.68679
3.61887
3.58974
3.58263
3.54129
3.47834
3.45198
3.43349
3.42819
3.43131
3.43859
3.44313
3.45219
3.46692
3.47545
3.47566
3.47405
3.47364
3.47531
3.47602
3.47754
3.48022
3.48335
3.489
3.49317
3.49346
3.49292
3.48965
3.48579
3.48527
3.48392
3.48528
3.48734
3.48773
3.48712
3.48477
3.48317
3.48288
3.48396
3.48559
3.48768
3.49089
3.49465
3.4968
3.49714
3.49654
3.49466
3.49337
3.4938
3.49424
3.49498
3.49579
3.49597
3.49573
3.495
3.49421
3.49316
3.49224
3.49119
3.48991
3.48896
3.48849
3.48863
3.49068
1.40001
1.40001
1.4
1.40001
1.40001
1.39987
1.40247
1.41841
1.47022
1.58991
1.81234
2.13885
2.62719
3.12708
3.50462
3.66176
3.74949
3.78939
3.77077
3.736
3.66822
3.57685
3.4457
3.3972
3.39745
3.40292
3.40549
3.41728
3.43451
3.44799
3.45281
3.45337
3.45459
3.4559
3.45235
3.45052
3.45338
3.45441
3.45552
3.45888
3.4646
3.46983
3.47427
3.47628
3.47683
3.47754
3.47937
3.48159
3.48396
3.48518
3.48415
3.48038
3.47364
3.46938
3.46752
3.46643
3.46623
3.46745
3.47177
3.4779
3.48243
3.48488
3.48682
3.48829
3.48928
3.49161
3.49416
3.49498
3.49497
3.49436
3.49346
3.49238
3.49114
3.48916
3.48687
3.48522
3.48391
3.48278
3.48224
3.48273
1.40001
1.40001
1.40001
1.40001
1.40001
1.40001
1.40001
1.4
1.40001
1.39974
1.40066
1.40965
1.48164
1.68516
2.04875
2.57358
2.98332
3.40646
3.49477
3.54599
3.54724
3.51626
3.51058
3.49658
3.48356
3.4625
3.42525
3.41131
3.40065
3.39451
3.3986
3.40381
3.41368
3.42137
3.42647
3.43231
3.43671
3.43582
3.433
3.42925
3.42949
3.43303
3.43602
3.44031
3.44634
3.45351
3.46122
3.46715
3.47067
3.47173
3.47063
3.4675
3.46294
3.45645
3.45263
3.45174
3.45172
3.45288
3.45565
3.45833
3.46028
3.46226
3.46484
3.46817
3.47231
3.47813
3.4833
3.48547
3.48591
3.48534
3.4841
3.48325
3.48214
3.4808
3.47995
3.47936
3.47857
3.47719
3.47658
3.4765
1.40001
1.40001
1.40001
1.40001
1.40001
1.40001
1.40001
1.40001
1.40001
1.40001
1.4
1.4
1.39998
1.4002
1.40857
1.49813
1.6993
2.06444
2.56476
2.97594
3.395
3.49358
3.58098
3.59156
3.57357
3.53965
3.48301
3.39049
3.34505
3.34868
3.36962
3.37875
3.38347
3.39079
3.40043
3.40691
3.41283
3.41946
3.4206
3.41741
3.41603
3.41975
3.4207
3.41951
3.41894
3.42076
3.42452
3.42942
3.43735
3.44508
3.44853
3.44957
3.44923
3.44622
3.44523
3.44566
3.44566
3.44617
3.44712
3.44719
3.44664
3.44669
3.44757
3.44925
3.45222
3.45652
3.4596
3.46012
3.46023
3.45966
3.45982
3.46156
3.46397
3.46649
3.46885
3.46999
3.4703
3.47034
3.4704
3.46989
1.40001
1.40001
1.40001
1.40001
1.40001
1.40001
1.40001
1.40001
1.40001
1.40001
1.40001
1.40001
1.4
1.4
1.40001
1.39993
1.40052
1.41076
1.51111
1.713
2.0912
2.57066
2.96975
3.35357
3.39323
3.42821
3.438
3.41828
3.39558
3.39702
3.40968
3.4046
3.39714
3.38552
3.3825
3.38417
3.39058
3.40223
3.40796
3.41141
3.42128
3.4263
3.4249
3.41988
3.41307
3.40813
3.40586
3.4069
3.41182
3.41706
3.42162
3.42641
3.43086
3.43502
3.43848
3.44046
3.44109
3.44221
3.44339
3.44313
3.44046
3.43816
3.43763
3.43828
3.43968
3.44154
3.44169
3.44097
3.43874
3.43685
3.43718
3.4391
3.44263
3.44785
3.45361
3.45765
3.45988
3.46117
3.46148
3.46048
1.40001
1.40001
1.40001
1.40001
1.40001
1.40001
1.40001
1.40001
1.40001
1.40001
1.40001
1.40001
1.40001
1.40001
1.40001
1.4
1.4
1.40001
1.39997
1.40107
1.41543
1.52589
1.74047
2.14929
2.61757
3.01953
3.35751
3.42542
3.48346
3.4852
3.47076
3.4495
3.40947
3.3606
3.34748
3.35372
3.3754
3.3918
3.40421
3.41455
3.42436
3.42908
3.42789
3.41858
3.41153
3.4078
3.40591
3.40755
3.40875
3.40772
3.40709
3.40798
3.41162
3.41626
3.42179
3.42841
3.43353
3.43652
3.43744
3.43672
3.43291
3.42889
3.42854
3.42936
3.43135
3.4336
3.43367
3.43268
3.43
3.42749
3.42719
3.42825
3.43026
3.43475
3.441
3.44559
3.44771
3.44865
3.44903
3.44883
1.40001
1.40001
1.40001
1.40001
1.40001
1.40001
1.40001
1.40001
1.40001
1.40001
1.40001
1.40001
1.40001
1.40001
1.40001
1.40001
1.40001
1.4
1.4
1.4
1.4
1.40006
1.40189
1.42425
1.56399
1.79676
2.23635
2.68346
3.09348
3.35584
3.35944
3.3982
3.41437
3.38829
3.37547
3.37854
3.38867
3.39299
3.39431
3.4007
3.4091
3.41752
3.42337
3.4261
3.42933
3.43438
3.43656
3.43616
3.43206
3.42353
3.41429
3.40867
3.40734
3.40791
3.41057
3.41461
3.41866
3.42102
3.42205
3.42226
3.42237
3.42333
3.42572
3.42973
3.43448
3.43819
3.43855
3.43735
3.43427
3.43014
3.42842
3.42882
3.43019
3.433
3.43751
3.44045
3.44113
3.44118
3.44027
3.43864
1.40001
1.40001
1.40001
1.40001
1.40001
1.40001
1.40001
1.40001
1.40001
1.40001
1.40001
1.40001
1.40001
1.40001
1.40001
1.40001
1.40001
1.40001
1.40001
1.4
1.40001
1.4
1.40001
1.39998
1.40031
1.40378
1.44213
1.60868
1.89006
2.34676
2.75907
3.18109
3.36622
3.41615
3.45307
3.44923
3.42619
3.40596
3.39072
3.37786
3.3762
3.38021
3.39434
3.41001
3.42368
3.43612
3.44923
3.45816
3.45905
3.45675
3.44671
3.43316
3.42396
3.41905
3.41587
3.41424
3.41448
3.41423
3.4136
3.4123
3.41186
3.41294
3.41618
3.42339
3.43427
3.44058
3.44065
3.43949
3.43822
3.43684
3.43466
3.4333
3.43347
3.43452
3.43672
3.43705
3.43657
3.43534
3.43217
3.42914
1.40001
1.40001
1.40001
1.40001
1.40001
1.40001
1.40001
1.40001
1.40001
1.40001
1.40001
1.40001
1.40001
1.40001
1.40001
1.40001
1.40001
1.40001
1.40001
1.40001
1.40001
1.40001
1.40001
1.4
1.4
1.40001
1.39998
1.40084
1.4077
1.47387
1.67125
2.00218
2.48465
2.89756
3.27991
3.41035
3.40091
3.42772
3.43295
3.40965
3.39423
3.38422
3.37828
3.3832
3.39261
3.40683
3.42952
3.45209
3.45949
3.45814
3.45547
3.45191
3.44993
3.45011
3.44662
3.43981
3.43247
3.4254
3.42023
3.41687
3.41483
3.41398
3.41487
3.41977
3.42773
3.43497
3.43722
3.43752
3.43789
3.43791
3.43604
3.43469
3.43446
3.43465
3.43411
3.43374
3.43317
3.43166
3.42836
3.42572
1.40001
1.40001
1.40001
1.40001
1.40001
1.40001
1.40001
1.40001
1.40001
1.40001
1.40001
1.40001
1.40001
1.40001
1.40001
1.40001
1.40001
1.40001
1.40001
1.40001
1.40001
1.40001
1.40001
1.40001
1.4
1.40001
1.4
1.4
1.4
1.40006
1.4021
1.41665
1.53948
1.79587
2.21778
2.65596
3.04731
3.34202
3.43357
3.44574
3.46283
3.44859
3.41712
3.40257
3.39914
3.39847
3.40701
3.42205
3.43044
3.43409
3.43666
3.44204
3.45199
3.4607
3.46168
3.45923
3.45734
3.45493
3.45043
3.4427
3.43319
3.42513
3.42244
3.42432
3.42957
3.43243
3.43232
3.43154
3.43151
3.43274
3.43349
3.43377
3.43354
3.43341
3.43518
3.43747
3.43758
3.43649
3.4325
3.42734
1.40001
1.40001
1.40001
1.40001
1.40001
1.40001
1.40001
1.40001
1.40001
1.40001
1.40001
1.40001
1.40001
1.40001
1.40001
1.40001
1.40001
1.40001
1.40001
1.40001
1.40001
1.40001
1.40001
1.40001
1.40001
1.40001
1.40001
1.40001
1.4
1.4
1.40001
1.39999
1.40058
1.40611
1.44673
1.63264
1.9467
2.43774
2.8587
3.21458
3.39855
3.43365
3.45315
3.47667
3.46548
3.44919
3.43683
3.42489
3.41865
3.41605
3.41502
3.41816
3.42578
3.44048
3.45851
3.46525
3.46596
3.46678
3.46606
3.46209
3.45781
3.45189
3.44743
3.44524
3.44296
3.44003
3.43688
3.43426
3.43377
3.4338
3.43354
3.43299
3.4325
3.43276
3.4353
3.43948
3.44054
3.43975
3.43715
3.43222
1.40001
1.40001
1.40001
1.40001
1.40001
1.40001
1.40001
1.40001
1.40001
1.40001
1.40001
1.40001
1.40001
1.40001
1.40001
1.40001
1.40001
1.40001
1.40001
1.40001
1.40001
1.40001
1.40001
1.40001
1.40001
1.40001
1.40001
1.40001
1.40001
1.4
1.40001
1.4
1.4
1.4
1.40002
1.40212
1.41573
1.52192
1.81674
2.25127
2.69024
3.05897
3.34
3.43955
3.46335
3.48272
3.49912
3.49243
3.47338
3.449
3.43007
3.42311
3.42603
3.4325
3.44128
3.44501
3.4458
3.45074
3.45841
3.46505
3.46445
3.46082
3.46018
3.46174
3.4621
3.46096
3.45682
3.45085
3.44483
3.44006
3.43688
3.43516
3.43476
3.43544
3.43838
3.44123
3.44225
3.44186
3.44078
3.43686
1.40001
1.40001
1.40001
1.40001
1.40001
1.40001
1.40001
1.40001
1.40001
1.40001
1.40001
1.40001
1.40001
1.40001
1.40001
1.40001
1.40001
1.40001
1.40001
1.40001
1.40001
1.40001
1.40001
1.40001
1.40001
1.40001
1.40001
1.40001
1.40001
1.40001
1.40001
1.40001
1.40001
1.4
1.4
1.40001
1.39999
1.40064
1.40942
1.45869
1.68832
2.07477
2.56974
2.94275
3.23804
3.39652
3.47041
3.49229
3.50095
3.49876
3.49264
3.4824
3.47132
3.46093
3.45212
3.44661
3.44519
3.44711
3.44841
3.44858
3.44955
3.45294
3.46029
3.46461
3.46592
3.46648
3.46458
3.46345
3.46162
3.45826
3.45359
3.44849
3.44608
3.44582
3.44571
3.44606
3.44695
3.44722
3.44662
3.44289
1.40001
1.40001
1.40001
1.40001
1.40001
1.40001
1.40001
1.40001
1.40001
1.40001
1.40001
1.40001
1.40001
1.40001
1.40001
1.40001
1.40001
1.40001
1.40001
1.40001
1.40001
1.40001
1.40001
1.40001
1.40001
1.40001
1.40001
1.40001
1.40001
1.40001
1.40001
1.40001
1.40001
1.40001
1.4
1.4
1.4
1.4
1.4
1.40012
1.40498
1.43159
1.58291
1.96859
2.48477
2.868
3.16762
3.35116
3.45586
3.48306
3.49087
3.50589
3.51662
3.51462
3.5027
3.48692
3.47722
3.46965
3.45965
3.45092
3.44802
3.44928
3.45393
3.45728
3.45841
3.46026
3.46513
3.46592
3.46641
3.46647
3.46525
3.4617
3.45909
3.45847
3.45819
3.45715
3.45566
3.45508
3.45462
3.45192
1.40001
1.40001
1.40001
1.40001
1.40001
1.40001
1.40001
1.40001
1.40001
1.40001
1.40001
1.40001
1.40001
1.40001
1.40001
1.40001
1.40001
1.40001
1.40001
1.40001
1.40001
1.40001
1.40001
1.40001
1.40001
1.40001
1.40001
1.40001
1.40001
1.40001
1.40001
1.40001
1.40001
1.40001
1.40001
1.40001
1.40001
1.40001
1.4
1.4
1.4
1.40002
1.40221
1.42519
1.52894
1.87151
2.38705
2.85912
3.13841
3.30971
3.37968
3.4445
3.49677
3.51278
3.51211
3.50665
3.50434
3.50436
3.49976
3.48756
3.47442
3.46659
3.46469
3.46263
3.46105
3.46047
3.46052
3.46468
3.46928
3.47048
3.46918
3.46633
3.46592
3.46629
3.4662
3.46509
3.46289
3.461
3.4605
3.45943
1.40001
1.40001
1.40001
1.40001
1.40001
1.40001
1.40001
1.40001
1.40001
1.40001
1.40001
1.40001
1.40001
1.40001
1.40001
1.40001
1.40001
1.40001
1.40001
1.40001
1.40001
1.40001
1.40001
1.40001
1.40001
1.40001
1.40001
1.40001
1.40001
1.40001
1.40001
1.40001
1.40001
1.40001
1.40001
1.40001
1.40001
1.40001
1.40001
1.4
1.4
1.4
1.4
1.40002
1.40103
1.41998
1.49975
1.80012
2.32358
2.92458
3.14976
3.27747
3.37588
3.43736
3.4411
3.44937
3.47134
3.49498
3.50402
3.50212
3.4948
3.49234
3.49524
3.49362
3.48596
3.47693
3.47146
3.47143
3.47224
3.47159
3.47008
3.46936
3.46991
3.47015
3.46987
3.46888
3.46666
3.46385
3.46235
3.46201
1.40001
1.40001
1.40001
1.40001
1.40001
1.40001
1.40001
1.40001
1.40001
1.40001
1.40001
1.40001
1.40001
1.40001
1.40001
1.40001
1.40001
1.40001
1.40001
1.40001
1.40001
1.40001
1.40001
1.40001
1.40001
1.40001
1.40001
1.40001
1.40001
1.40001
1.40001
1.40001
1.40001
1.40001
1.40001
1.40001
1.40001
1.40001
1.40001
1.40001
1.40001
1.4
1.4
1.4
1.4
1.40002
1.40063
1.4155
1.4984
1.79174
2.32477
2.91462
3.28162
3.3551
3.39148
3.38542
3.39509
3.42262
3.45289
3.47027
3.48086
3.49477
3.5046
3.50697
3.50294
3.4944
3.48937
3.48803
3.48505
3.47914
3.47509
3.47463
3.47384
3.47299
3.47247
3.47141
3.46852
3.46417
3.46148
3.46163
1.40001
1.40001
1.40001
1.40001
1.40001
1.40001
1.40001
1.40001
1.40001
1.40001
1.40001
1.40001
1.40001
1.40001
1.40001
1.40001
1.40001
1.40001
1.40001
1.40001
1.40001
1.40001
1.40001
1.40001
1.40001
1.40001
1.40001
1.40001
1.40001
1.40001
1.40001
1.40001
1.40001
1.40001
1.40001
1.40001
1.40001
1.40001
1.40001
1.40001
1.40001
1.40001
1.40001
1.40001
1.4
1.4
1.4
1.40002
1.40071
1.41478
1.51601
1.80872
2.34481
2.94356
3.34257
3.40187
3.42419
3.41936
3.42674
3.43812
3.44385
3.4549
3.46598
3.47751
3.48557
3.48642
3.48815
3.49064
3.49112
3.48652
3.4801
3.47759
3.4774
3.47812
3.47927
3.47977
3.47815
3.47331
3.46738
3.4647
1.40001
1.40001
1.40001
1.40001
1.40001
1.40001
1.40001
1.40001
1.40001
1.40001
1.40001
1.40001
1.40001
1.40001
1.40001
1.40001
1.40001
1.40001
1.40001
1.40001
1.40001
1.40001
1.40001
1.40001
1.40001
1.40001
1.40001
1.40001
1.40001
1.40001
1.40001
1.40001
1.40001
1.40001
1.40001
1.40001
1.40001
1.40001
1.40001
1.40001
1.40001
1.40001
1.40001
1.40001
1.40001
1.40001
1.4
1.4
1.4
1.40002
1.40107
1.41587
1.53092
1.86756
2.47708
3.01103
3.31588
3.47283
3.48041
3.48597
3.47219
3.46137
3.4564
3.45284
3.45789
3.46645
3.46876
3.47181
3.47771
3.4804
3.47939
3.47722
3.47711
3.47916
3.48295
3.48596
3.48746
3.48743
3.48403
3.47434
1.40001
1.40001
1.40001
1.40001
1.40001
1.40001
1.40001
1.40001
1.40001
1.40001
1.40001
1.40001
1.40001
1.40001
1.40001
1.40001
1.40001
1.40001
1.40001
1.40001
1.40001
1.40001
1.40001
1.40001
1.40001
1.40001
1.40001
1.40001
1.40001
1.40001
1.40001
1.40001
1.40001
1.40001
1.40001
1.40001
1.40001
1.40001
1.40001
1.40001
1.40001
1.40001
1.40001
1.40001
1.40001
1.40001
1.40001
1.40001
1.4
1.4
1.4
1.40003
1.40158
1.42261
1.60026
2.00314
2.56059
3.08005
3.38426
3.48295
3.50038
3.51433
3.51872
3.50457
3.48522
3.47555
3.47227
3.47356
3.47518
3.47536
3.47426
3.47141
3.46799
3.46544
3.46863
3.47892
3.49027
3.49303
3.49167
3.48432
1.40001
1.40001
1.40001
1.40001
1.40001
1.40001
1.40001
1.40001
1.40001
1.40001
1.40001
1.40001
1.40001
1.40001
1.40001
1.40001
1.40001
1.40001
1.40001
1.40001
1.40001
1.40001
1.40001
1.40001
1.40001
1.40001
1.40001
1.40001
1.40001
1.40001
1.40001
1.40001
1.40001
1.40001
1.40001
1.40001
1.40001
1.40001
1.40001
1.40001
1.40001
1.40001
1.40001
1.40001
1.40001
1.40001
1.40001
1.40001
1.40001
1.40001
1.4
1.4
1.4
1.40008
1.40399
1.43915
1.6722
2.16399
2.74725
3.16143
3.35458
3.46177
3.50342
3.51865
3.517
3.50662
3.4953
3.49136
3.49325
3.49494
3.49254
3.48525
3.47352
3.46369
3.46337
3.46766
3.4758
3.48548
3.48852
3.48743
1.40001
1.40001
1.40001
1.40001
1.40001
1.40001
1.40001
1.40001
1.40001
1.40001
1.40001
1.40001
1.40001
1.40001
1.40001
1.40001
1.40001
1.40001
1.40001
1.40001
1.40001
1.40001
1.40001
1.40001
1.40001
1.40001
1.40001
1.40001
1.40001
1.40001
1.40001
1.40001
1.40001
1.40001
1.40001
1.40001
1.40001
1.40001
1.40001
1.40001
1.40001
1.40001
1.40001
1.40001
1.40001
1.40001
1.40001
1.40001
1.40001
1.40001
1.40001
1.40001
1.4
1.4
1.4
1.40024
1.40848
1.46901
1.79262
2.45907
2.97169
3.21028
3.36292
3.46324
3.46428
3.46584
3.4725
3.4801
3.49019
3.50478
3.51147
3.50948
3.50146
3.48247
3.46924
3.46988
3.47281
3.47748
3.48238
3.48539
1.40001
1.40001
1.40001
1.40001
1.40001
1.40001
1.40001
1.40001
1.40001
1.40001
1.40001
1.40001
1.40001
1.40001
1.40001
1.40001
1.40001
1.40001
1.40001
1.40001
1.40001
1.40001
1.40001
1.40001
1.40001
1.40001
1.40001
1.40001
1.40001
1.40001
1.40001
1.40001
1.40001
1.40001
1.40001
1.40001
1.40001
1.40001
1.40001
1.40001
1.40001
1.40001
1.40001
1.40001
1.40001
1.40001
1.40001
1.40001
1.40001
1.40001
1.40001
1.40001
1.40001
1.4
1.4
1.4
1.40001
1.40072
1.42258
1.56159
2.02644
2.65429
3.24362
3.39343
3.40532
3.41093
3.41412
3.41813
3.43062
3.4581
3.49528
3.51113
3.50803
3.49571
3.48286
3.48197
3.48237
3.48007
3.47932
3.48285
1.40001
1.40001
1.40001
1.40001
1.40001
1.40001
1.40001
1.40001
1.40001
1.40001
1.40001
1.40001
1.40001
1.40001
1.40001
1.40001
1.40001
1.40001
1.40001
1.40001
1.40001
1.40001
1.40001
1.40001
1.40001
1.40001
1.40001
1.40001
1.40001
1.40001
1.40001
1.40001
1.40001
1.40001
1.40001
1.40001
1.40001
1.40001
1.40001
1.40001
1.40001
1.40001
1.40001
1.40001
1.40001
1.40001
1.40001
1.40001
1.40001
1.40001
1.40001
1.40001
1.40001
1.40001
1.40001
1.4
1.4
1.4
1.40012
1.40351
1.46346
1.69488
2.29109
2.9407
3.36702
3.48275
3.48905
3.43706
3.42469
3.43265
3.45595
3.47618
3.47888
3.4779
3.47813
3.48161
3.48376
3.48111
3.47819
3.47985
1.40001
1.40001
1.40001
1.40001
1.40001
1.40001
1.40001
1.40001
1.40001
1.40001
1.40001
1.40001
1.40001
1.40001
1.40001
1.40001
1.40001
1.40001
1.40001
1.40001
1.40001
1.40001
1.40001
1.40001
1.40001
1.40001
1.40001
1.40001
1.40001
1.40001
1.40001
1.40001
1.40001
1.40001
1.40001
1.40001
1.40001
1.40001
1.40001
1.40001
1.40001
1.40001
1.40001
1.40001
1.40001
1.40001
1.40001
1.40001
1.40001
1.40001
1.40001
1.40001
1.40001
1.40001
1.40001
1.40001
1.40001
1.4
1.4
1.40001
1.4007
1.4119
1.53712
1.97023
2.67313
3.18345
3.4301
3.50181
3.50707
3.49977
3.47339
3.46417
3.4611
3.46109
3.46533
3.47289
3.4795
3.4788
3.47526
3.47541
1.40001
1.40001
1.40001
1.40001
1.40001
1.40001
1.40001