/*--------------------------------*- C++ -*----------------------------------*\
| =========                 |                                                 |
| \\      /  F ield         | OpenFOAM: The Open Source CFD Toolbox           |
|  \\    /   O peration     | Version:  2206                                  |
|   \\  /    A nd           | Website:  www.openfoam.com                      |
|    \\/     M anipulation  |                                                 |
\*---------------------------------------------------------------------------*/
FoamFile
{
    version     2.0;
    format      ascii;
    arch        "LSB;label=32;scalar=64";
    class       volVectorField;
    location    "0.06";
    object      U;
}
// * * * * * * * * * * * * * * * * * * * * * * * * * * * * * * * * * * * * * //

dimensions      [0 1 -1 0 0 0 0];

internalField   nonuniform List<vector> 
4800
(
(6.71717 3.1072e-15 0)
(6.71717 -3.12721e-15 0)
(6.71717 -1.99868e-14 0)
(6.71717 -2.77248e-14 0)
(6.71717 -3.71764e-14 0)
(6.71717 -1.75864e-14 0)
(6.71717 4.41643e-14 0)
(6.71717 5.0172e-14 0)
(6.71717 2.37208e-14 0)
(6.71717 2.27439e-14 0)
(6.71717 3.22122e-14 0)
(6.71717 1.00351e-15 0)
(6.71717 -9.02823e-15 0)
(6.71717 -1.77997e-14 0)
(6.71717 -1.87032e-15 0)
(6.71717 6.65115e-15 0)
(6.71717 4.86751e-15 0)
(6.71717 -6.24341e-14 0)
(6.71717 -9.52164e-14 0)
(6.71717 -9.23293e-14 0)
(6.71717 -5.86535e-14 0)
(6.71717 -6.96454e-15 0)
(6.71717 2.32607e-14 0)
(6.71717 7.42928e-14 0)
(6.71717 9.47864e-14 0)
(6.71717 8.43979e-14 0)
(6.71717 6.0087e-14 0)
(6.71717 1.49259e-14 0)
(6.71717 3.03452e-14 0)
(6.71717 5.21223e-14 0)
(6.71717 3.66963e-14 0)
(6.71717 4.86351e-14 0)
(6.71717 1.18831e-13 0)
(6.71717 1.3593e-13 0)
(6.71717 1.40404e-13 0)
(6.71717 7.14823e-14 0)
(6.71717 -4.54745e-15 0)
(6.71717 -4.86084e-15 0)
(6.71717 -2.24772e-14 0)
(6.71717 -2.47643e-14 0)
(6.71717 -2.46042e-15 0)
(6.71717 6.11106e-15 0)
(6.71717 -3.2539e-15 0)
(6.71717 -2.45976e-14 0)
(6.71717 -3.55695e-14 0)
(6.71717 -1.81665e-14 0)
(6.71717 1.1682e-14 0)
(6.71717 9.30161e-15 0)
(6.71717 5.26758e-16 0)
(6.71717 -2.33574e-14 0)
(6.71717 -3.91034e-14 0)
(6.71717 -7.39794e-14 0)
(6.71717 -7.3306e-14 0)
(6.71717 -5.28458e-14 0)
(6.71717 -4.6218e-14 0)
(6.71717 -4.43377e-14 0)
(6.71717 -5.99504e-14 0)
(6.71717 -7.19158e-14 0)
(6.71717 -9.2746e-14 0)
(6.71717 -1.12883e-13 0)
(6.71717 -9.87537e-14 0)
(6.71717 -9.96839e-16 0)
(6.71717 5.10788e-14 0)
(6.71717 9.68301e-14 0)
(6.71717 9.51898e-14 0)
(6.71717 5.28691e-14 0)
(6.71717 -1.51993e-14 0)
(6.71717 -2.34774e-14 0)
(6.71717 3.37958e-14 0)
(6.71717 2.6748e-14 0)
(6.71717 -6.3711e-14 0)
(6.71717 -1.65712e-13 0)
(6.71717 -1.48739e-13 0)
(6.71717 -1.12563e-13 0)
(6.71717 -7.9097e-14 0)
(6.71717 1.27222e-14 0)
(6.71717 4.08304e-14 0)
(6.71717 9.18692e-14 0)
(6.71717 7.93037e-14 0)
(6.71717 5.9339e-14 0)
(6.71717 1.85699e-15 0)
(6.71717 -1.01184e-14 0)
(6.71717 -1.01818e-14 0)
(6.71717 1.21721e-14 0)
(6.71717 6.51779e-14 0)
(6.71717 5.70865e-14 0)
(6.71717 4.19839e-14 0)
(6.71717 1.31889e-14 0)
(6.71717 4.39409e-15 0)
(6.71717 -2.02535e-14 0)
(6.71717 -1.63228e-14 0)
(6.71717 2.66746e-14 0)
(6.71717 3.08287e-14 0)
(6.71717 2.48843e-14 0)
(6.71717 -1.27355e-14 0)
(6.71717 -1.92667e-14 0)
(6.71717 -1.36124e-14 0)
(6.71717 -1.33823e-14 0)
(6.71717 -2.20838e-14 0)
(6.71717 -7.61865e-14 0)
(6.71717 -1.04905e-13 0)
(6.71717 -7.1439e-14 0)
(6.71717 5.33759e-15 0)
(6.71717 3.43759e-14 0)
(6.71717 5.70799e-14 0)
(6.71717 3.18088e-14 0)
(6.71717 1.58294e-14 0)
(6.71717 8.49213e-14 0)
(6.71717 1.06685e-13 0)
(6.71717 8.80819e-14 0)
(6.71717 2.64412e-14 0)
(6.71717 -1.50859e-14 0)
(6.71717 -2.51643e-14 0)
(6.71717 -4.2374e-15 0)
(6.71717 -1.74197e-14 0)
(6.71717 -3.57962e-14 0)
(6.71717 -6.80117e-16 0)
(6.71717 8.08906e-14 0)
(6.71717 1.16847e-13 0)
(6.71717 1.99527e-13 0)
(6.71717 -3.60062e-15 0)
(6.71717 -1.25255e-14 0)
(6.71717 -3.47727e-15 0)
(6.71717 1.87332e-14 0)
(6.71717 6.43211e-14 0)
(6.71717 6.86852e-14 0)
(6.71717 8.00138e-16 0)
(6.71717 -1.20154e-14 0)
(6.71717 -4.16772e-14 0)
(6.71717 -2.43409e-14 0)
(6.71717 1.01781e-13 0)
(6.71717 1.51516e-13 0)
(6.71717 1.96367e-13 0)
(6.71717 1.35157e-13 0)
(6.71717 2.78982e-14 0)
(6.71717 -3.31057e-14 0)
(6.71717 -6.87885e-14 0)
(6.71717 -7.37794e-14 0)
(6.71717 -6.48379e-14 0)
(6.71717 -4.26907e-14 0)
(6.71717 -3.07453e-14 0)
(6.71717 -3.47327e-14 0)
(6.71717 -3.99202e-14 0)
(6.71717 -2.39908e-14 0)
(6.71717 -2.46809e-14 0)
(6.71717 -2.13404e-14 0)
(6.71717 -1.09119e-14 0)
(6.71717 5.36593e-14 0)
(6.71717 1.06272e-13 0)
(6.71717 9.90838e-14 0)
(6.71717 9.92438e-14 0)
(6.71717 5.63731e-14 0)
(6.71717 -6.82885e-14 0)
(6.71717 -1.58271e-13 0)
(6.71717 -1.68196e-13 0)
(6.71717 -1.60868e-13 0)
(6.71717 -1.12479e-13 0)
(6.71717 -6.38977e-14 0)
(6.71717 -9.30161e-15 0)
(6.71717 1.39359e-14 0)
(6.71717 -4.4541e-15 0)
(6.71717 9.73501e-15 0)
(6.71717 1.89099e-14 0)
(6.71717 4.57079e-15 0)
(6.71717 -4.50878e-14 0)
(6.71717 -5.48461e-14 0)
(6.71717 -6.7795e-14 0)
(6.71717 -4.8095e-14 0)
(6.71717 -3.16388e-14 0)
(6.71717 -5.16756e-15 0)
(6.71717 1.95567e-14 0)
(6.71717 5.10288e-14 0)
(6.71717 6.9492e-14 0)
(6.71717 7.9167e-14 0)
(6.71717 7.73767e-14 0)
(6.71717 4.03403e-14 0)
(6.71717 -2.82882e-14 0)
(6.71717 -4.05603e-14 0)
(6.71717 -2.83149e-14 0)
(6.71717 4.40909e-14 0)
(6.71717 1.03331e-13 0)
(6.71717 8.61849e-14 0)
(6.71717 9.72501e-14 0)
(6.71717 8.55381e-14 0)
(6.71717 -5.62297e-14 0)
(6.71717 -6.02804e-14 0)
(6.71717 -7.11123e-14 0)
(6.71717 -8.22875e-14 0)
(6.71717 -7.01454e-14 0)
(6.71717 -4.95286e-14 0)
(6.71717 -4.10037e-14 0)
(6.71717 -1.28092e-13 0)
(6.71717 -2.68506e-13 0)
(6.71717 -2.87233e-13 0)
(6.71717 -2.19818e-13 0)
(6.71717 -1.03044e-13 0)
(6.71717 -6.44911e-14 0)
(6.71717 -5.30858e-14 0)
(6.71717 -3.02019e-14 0)
(6.71717 -1.47099e-14 0)
(6.71717 1.53426e-14 0)
(6.71717 6.03438e-15 0)
(6.71717 -1.65762e-14 0)
(6.71717 -2.3354e-14 0)
(6.71717 -4.20273e-14 0)
(6.71717 -4.16272e-14 0)
(6.71717 -1.25022e-14 0)
(6.71717 3.11454e-14 0)
(6.71717 6.23541e-14 0)
(6.71717 7.22625e-14 0)
(6.71717 1.5606e-14 0)
(6.71717 -2.27973e-14 0)
(6.71717 -2.3284e-14 0)
(6.71717 -1.71296e-14 0)
(6.71717 5.56429e-15 0)
(6.71717 1.7253e-14 0)
(6.71717 4.52378e-14 0)
(6.71717 4.92452e-14 0)
(6.71717 4.11838e-14 0)
(6.71717 8.25476e-14 0)
(6.71717 1.21448e-13 0)
(6.71717 1.3605e-13 0)
(6.71717 3.12787e-14 0)
(6.71717 -6.21541e-14 0)
(6.71717 -8.26909e-14 0)
(6.71717 -8.45213e-14 0)
(6.71717 -1.80848e-13 0)
(6.71717 -1.56387e-13 0)
(6.71717 -7.58564e-14 0)
(6.71717 -3.27156e-14 0)
(6.71717 -5.29725e-14 0)
(6.71717 -1.08349e-13 0)
(6.71717 -1.47089e-13 0)
(6.71717 -1.22641e-13 0)
(6.71717 -6.05505e-14 0)
(6.71717 -4.57546e-14 0)
(6.71717 -6.35076e-14 0)
(6.71717 -3.95102e-14 0)
(6.71717 -1.00947e-13 0)
(6.71717 -2.12144e-14 0)
(6.71717 -9.73501e-16 0)
(6.71717 1.3429e-14 0)
(6.71717 1.90433e-14 0)
(6.71717 3.74065e-14 0)
(6.71717 2.72047e-14 0)
(6.71717 8.34144e-15 0)
(6.71717 5.98437e-15 0)
(6.71717 3.40592e-14 0)
(6.71717 5.57763e-14 0)
(6.71717 5.81167e-14 0)
(6.71717 8.96822e-15 0)
(6.71717 -9.51598e-14 0)
(6.71717 -1.3462e-13 0)
(6.71717 -1.12506e-13 0)
(6.71717 -5.64431e-15 0)
(6.71717 2.64779e-14 0)
(6.71717 5.62697e-14 0)
(6.71717 3.17021e-14 0)
(6.71717 2.07136e-14 0)
(6.71717 2.49843e-14 0)
(6.71717 7.06789e-15 0)
(6.71717 -4.62013e-14 0)
(6.71717 -1.51296e-13 0)
(6.71717 -1.58197e-13 0)
(6.71717 -1.40374e-13 0)
(6.71717 -1.10029e-13 0)
(6.71717 -1.09199e-13 0)
(6.71717 -1.16473e-13 0)
(6.71717 -9.17825e-14 0)
(6.71717 1.05885e-14 0)
(6.71717 2.54644e-14 0)
(6.71717 6.01404e-14 0)
(6.71717 1.04075e-13 0)
(6.71717 3.04419e-14 0)
(6.71717 -3.80666e-14 0)
(6.71717 -9.0529e-14 0)
(6.71717 -9.03223e-14 0)
(6.71717 -8.52647e-14 0)
(6.71717 -3.71464e-14 0)
(6.71717 -7.6829e-14 0)
(6.71717 -1.26455e-14 0)
(6.71717 7.71467e-15 0)
(6.71717 1.54493e-14 0)
(6.71717 -1.13753e-14 0)
(6.71717 -3.22489e-14 0)
(6.71717 -2.58445e-14 0)
(6.71717 -3.04586e-14 0)
(6.71717 -2.75314e-14 0)
(6.71717 -2.73914e-14 0)
(6.71717 -2.25739e-14 0)
(6.71717 -1.17454e-14 0)
(6.71717 -3.23523e-14 0)
(6.71717 -1.23808e-13 0)
(6.71717 -1.45242e-13 0)
(6.71717 -1.31423e-13 0)
(6.71717 -3.42526e-14 0)
(6.71717 4.60746e-15 0)
(6.71717 2.19038e-14 0)
(6.71717 9.2606e-14 0)
(6.71717 -2.92751e-14 0)
(6.71717 -1.17514e-13 0)
(6.71717 -1.46292e-13 0)
(6.71717 -1.31423e-13 0)
(6.71717 -8.23642e-14 0)
(6.71717 -6.19674e-14 0)
(6.71717 -7.58398e-14 0)
(6.71717 -1.05302e-13 0)
(6.71717 -1.40088e-13 0)
(6.71717 -1.78121e-13 0)
(6.71717 -1.77307e-13 0)
(6.71717 -5.87568e-14 0)
(6.71717 4.00536e-14 0)
(6.71717 7.699e-14 0)
(6.71717 1.05825e-13 0)
(6.71717 6.28775e-15 0)
(6.71717 -9.4613e-14 0)
(6.71717 -1.08825e-13 0)
(6.71717 -1.23381e-13 0)
(6.71717 -7.14557e-14 0)
(6.71717 -1.0922e-14 0)
(6.71717 -5.13089e-15 0)
(6.71717 -1.78564e-14 0)
(6.71717 -3.34958e-14 0)
(6.71717 -3.75798e-14 0)
(6.71717 -1.88233e-14 0)
(6.71717 -1.50693e-14 0)
(6.71717 -3.04819e-14 0)
(6.71717 -7.76567e-14 0)
(6.71717 -1.35313e-13 0)
(6.71717 -1.35773e-13 0)
(6.71717 -1.1303e-13 0)
(6.71717 -8.67783e-14 0)
(6.71717 -9.41396e-14 0)
(6.71717 -1.26382e-13 0)
(6.71717 -1.23995e-13 0)
(6.71717 -9.91805e-14 0)
(6.71717 -7.98405e-14 0)
(6.71717 -8.05206e-14 0)
(6.71717 -7.85169e-14 0)
(6.71717 -7.49896e-14 0)
(6.71717 -6.75683e-14 0)
(6.71717 -3.33524e-14 0)
(6.71717 -6.80117e-16 0)
(6.71717 -4.13938e-14 0)
(6.71717 -6.74316e-14 0)
(6.71717 -7.20258e-14 0)
(6.71717 -9.56198e-14 0)
(6.71717 -8.80885e-14 0)
(6.71717 -8.66116e-14 0)
(6.71717 -7.03955e-14 0)
(6.71717 -2.6938e-14 0)
(6.71717 -4.93085e-15 0)
(6.71717 -5.25357e-14 0)
(6.71717 -4.85817e-14 0)
(6.71717 -5.41127e-14 0)
(6.71717 -1.07128e-13 0)
(6.71717 -1.82045e-13 0)
(6.71717 -1.97844e-13 0)
(6.71717 -2.05319e-13 0)
(6.71717 -1.50287e-13 0)
(6.71717 -1.40024e-16 0)
(6.71717 -2.87783e-14 0)
(6.71717 -2.28606e-14 0)
(6.71717 1.11453e-14 0)
(6.71717 5.02987e-14 0)
(6.71717 1.97267e-14 0)
(6.71717 -1.72263e-14 0)
(6.71717 -2.43975e-14 0)
(6.71717 -8.10873e-14 0)
(6.71717 -1.42108e-13 0)
(6.71717 -1.44715e-13 0)
(6.71717 -1.00577e-13 0)
(6.71717 -8.9022e-14 0)
(6.71717 -9.72468e-14 0)
(6.71717 -9.28794e-14 0)
(6.71717 -7.57798e-14 0)
(6.71717 -1.09769e-13 0)
(6.71717 -1.45535e-13 0)
(6.71717 -2.04385e-13 0)
(6.71717 -1.63998e-13 0)
(6.71717 -3.47393e-15 0)
(6.71717 7.64165e-14 0)
(6.71717 5.43827e-14 0)
(6.71717 7.05555e-14 0)
(6.71717 8.04772e-14 0)
(6.71717 -3.73831e-14 0)
(6.71717 -9.627e-14 0)
(6.71717 -9.23726e-14 0)
(6.71717 -8.85986e-14 0)
(6.71717 -4.8165e-14 0)
(6.71717 -1.26589e-14 0)
(6.71717 -1.11553e-14 0)
(6.71717 -4.71581e-14 0)
(6.71717 -9.95139e-14 0)
(6.71717 -9.58299e-14 0)
(6.71717 -9.74368e-14 0)
(6.71717 -1.17664e-13 0)
(6.71717 -8.67883e-14 0)
(6.71717 -6.77717e-14 0)
(6.71717 -3.90418e-14 0)
(6.71717 8.58815e-15 0)
(6.71717 2.20971e-14 0)
(6.71717 1.33823e-14 0)
(6.71717 1.51026e-15 0)
(6.71717 -5.85101e-14 0)
(6.71717 -9.48164e-14 0)
(6.71717 -1.1364e-13 0)
(6.71717 -9.53865e-14 0)
(6.71717 -5.46894e-14 0)
(6.71717 -5.37426e-15 0)
(6.71717 1.14453e-14 0)
(6.71717 3.58829e-14 0)
(6.71717 4.94852e-14 0)
(6.71717 7.38928e-14 0)
(6.71717 1.43491e-14 0)
(6.71717 -7.51863e-14 0)
(6.71717 -1.46109e-13 0)
(6.71717 -1.24161e-13 0)
(6.71717 -1.08839e-13 0)
(6.71717 -8.47946e-14 0)
(6.71717 -4.90118e-14 0)
(6.71717 -5.50028e-14 0)
(6.71717 -5.49762e-14 0)
(6.71717 -9.50497e-15 0)
(6.71717 1.08019e-14 0)
(6.71717 -6.86852e-14 0)
(6.71717 -8.55114e-14 0)
(6.71717 -8.84419e-14 0)
(6.71717 -5.54729e-14 0)
(6.71717 -2.73281e-14 0)
(6.71717 -2.76414e-14 0)
(6.71717 -3.851e-14 0)
(6.71717 -5.11088e-15 0)
(6.71717 1.99234e-14 0)
(6.71717 8.89487e-15 0)
(6.71717 -2.39941e-14 0)
(6.71717 -2.76348e-14 0)
(6.71717 3.29057e-14 0)
(6.71717 4.70415e-14 0)
(6.71717 5.37092e-14 0)
(6.71717 9.53165e-15 0)
(6.71717 2.77148e-14 0)
(6.71717 1.84032e-14 0)
(6.71717 -2.3104e-15 0)
(6.71717 -1.13153e-14 0)
(6.71717 -1.02251e-14 0)
(6.71717 -2.58711e-15 0)
(6.71717 2.72414e-14 0)
(6.71717 5.68465e-14 0)
(6.71717 1.21194e-13 0)
(6.71717 1.56117e-13 0)
(6.71717 1.40051e-13 0)
(6.71717 1.43331e-13 0)
(6.71717 1.49419e-13 0)
(6.71717 9.71368e-14 0)
(6.71717 2.22672e-14 0)
(6.71717 4.88618e-14 0)
(6.71717 8.62616e-14 0)
(6.71717 1.07128e-13 0)
(6.71717 9.4673e-14 0)
(6.71717 -7.5243e-14 0)
(6.71717 -1.23191e-13 0)
(6.71717 -9.52598e-14 0)
(6.71717 -1.11033e-13 0)
(6.71717 -1.04878e-13 0)
(6.71717 -1.19927e-13 0)
(6.71717 -8.83286e-14 0)
(6.71717 -3.70931e-14 0)
(6.71717 -1.62561e-14 0)
(6.71717 -5.12088e-15 0)
(6.71717 -3.89767e-14 0)
(6.71717 -6.87352e-14 0)
(6.71717 -5.83301e-14 0)
(6.71717 -3.77765e-14 0)
(6.71717 -4.8315e-14 0)
(6.71717 -6.86052e-14 0)
(6.71717 -3.97802e-14 0)
(6.71717 -1.90666e-14 0)
(6.71717 -1.75564e-14 0)
(6.71717 -1.81717e-14 0)
(6.71717 -5.89102e-15 0)
(6.71717 -2.38041e-15 0)
(6.71717 4.4241e-15 0)
(6.71717 1.1762e-14 0)
(6.71717 1.93833e-14 0)
(6.71717 5.0092e-14 0)
(6.71717 1.10932e-13 0)
(6.71717 1.13433e-13 0)
(6.71717 1.10292e-13 0)
(6.71717 1.09306e-13 0)
(6.71717 8.18641e-14 0)
(6.71717 6.09672e-14 0)
(6.71717 1.90066e-14 0)
(6.71717 1.28189e-14 0)
(6.71717 3.14121e-14 0)
(6.71717 6.76784e-14 0)
(6.71717 8.82919e-14 0)
(6.71717 8.92287e-14 0)
(6.71717 5.80367e-14 0)
(6.71717 -1.82532e-14 0)
(6.71717 -4.21673e-14 0)
(6.71717 -5.31392e-14 0)
(6.71717 -1.36524e-14 0)
(6.71717 3.86167e-14 0)
(6.71717 3.76865e-14 0)
(6.71717 1.77231e-14 0)
(6.71717 -5.9817e-14 0)
(6.71717 -1.07915e-13 0)
(6.71717 -8.94921e-14 0)
(6.71717 2.53677e-14 0)
(6.71717 6.61448e-14 0)
(6.71717 7.58264e-14 0)
(6.71717 1.09619e-13 0)
(6.71717 8.1074e-14 0)
(6.71717 6.23708e-14 0)
(6.71717 3.08587e-14 0)
(6.71717 -1.40691e-15 0)
(6.71717 -4.04903e-14 0)
(6.71717 -5.10155e-14 0)
(6.71717 -1.24242e-13 0)
(6.71717 2.23705e-15 0)
(6.71717 5.83434e-16 0)
(6.71717 1.96367e-15 0)
(6.71717 1.09419e-14 0)
(6.71717 2.41675e-14 0)
(6.71717 4.01169e-14 0)
(6.71717 5.57963e-14 0)
(6.71717 7.04722e-14 0)
(6.71717 8.98055e-14 0)
(6.71717 8.31244e-14 0)
(6.71717 4.87117e-14 0)
(6.71717 4.41843e-14 0)
(6.71717 2.91317e-14 0)
(6.71717 4.18039e-14 0)
(6.71717 6.29675e-14 0)
(6.71717 4.56345e-14 0)
(6.71717 4.57479e-14 0)
(6.71717 3.61229e-14 0)
(6.71717 -1.61761e-14 0)
(6.71717 -7.9207e-14 0)
(6.71717 -7.56764e-14 0)
(6.71717 -2.04302e-14 0)
(6.71717 6.55113e-15 0)
(6.71717 4.62613e-14 0)
(6.71717 4.90385e-14 0)
(6.71717 5.3816e-14 0)
(6.71717 3.01219e-14 0)
(6.71717 -3.4686e-14 0)
(6.71717 -4.77416e-14 0)
(6.71717 -4.03903e-14 0)
(6.71717 6.0117e-14 0)
(6.71717 1.33866e-13 0)
(6.71717 1.19974e-13 0)
(6.71717 1.31303e-13 0)
(6.71717 1.64422e-13 0)
(6.71717 1.54057e-13 0)
(6.71717 1.49099e-13 0)
(6.71717 1.82245e-13 0)
(6.71717 5.03954e-14 0)
(6.71717 -9.74898e-14 0)
(6.71717 -5.73432e-16 0)
(6.71717 2.26372e-15 0)
(6.71717 2.95584e-14 0)
(6.71717 4.78549e-14 0)
(6.71717 8.41145e-14 0)
(6.71717 4.11371e-14 0)
(6.71717 -2.06702e-15 0)
(6.71717 6.1644e-15 0)
(6.71717 4.53678e-14 0)
(6.71717 4.0467e-14 0)
(6.71717 2.19738e-14 0)
(6.71717 1.67762e-14 0)
(6.71717 4.18806e-14 0)
(6.71717 8.26876e-14 0)
(6.71717 1.07395e-13 0)
(6.71717 5.31992e-14 0)
(6.71717 3.11654e-14 0)
(6.71717 1.33423e-14 0)
(6.71717 1.88599e-14 0)
(6.71717 5.15956e-14 0)
(6.71717 6.34376e-14 0)
(6.71717 9.04856e-14 0)
(6.71717 1.03771e-13 0)
(6.71717 9.53665e-14 0)
(6.71717 9.50064e-14 0)
(6.71717 1.24181e-13 0)
(6.71717 1.35557e-13 0)
(6.71717 1.5639e-13 0)
(6.71717 1.41638e-13 0)
(6.71717 9.87837e-14 0)
(6.71717 4.90785e-14 0)
(6.71717 3.35958e-14 0)
(6.71717 3.43226e-14 0)
(6.71717 5.52795e-14 0)
(6.71717 8.69317e-14 0)
(6.71717 9.02423e-14 0)
(6.71717 8.82752e-14 0)
(6.71717 8.84986e-14 0)
(6.71717 -3.39459e-14 0)
(6.71717 -8.33374e-14 0)
(6.71717 -7.65466e-15 0)
(6.71717 -6.61781e-15 0)
(6.71717 -5.46428e-15 0)
(6.71717 -9.06823e-16 0)
(6.71717 -1.73763e-14 0)
(6.71717 -3.51261e-14 0)
(6.71717 -3.82633e-14 0)
(6.71717 -2.83616e-14 0)
(6.71717 -1.19954e-14 0)
(6.71717 -1.14253e-14 0)
(6.71717 -5.0042e-15 0)
(6.71717 4.52145e-14 0)
(6.71717 5.70032e-14 0)
(6.71717 7.88636e-14 0)
(6.71717 1.43908e-13 0)
(6.71717 1.909e-13 0)
(6.71717 1.38377e-13 0)
(6.71717 1.16773e-13 0)
(6.71717 1.5381e-13 0)
(6.71717 2.00735e-13 0)
(6.71717 1.71213e-13 0)
(6.71717 1.26565e-13 0)
(6.71717 1.40361e-13 0)
(6.71717 1.9434e-13 0)
(6.71717 1.86899e-13 0)
(6.71717 1.45605e-13 0)
(6.71717 1.7153e-13 0)
(6.71717 2.57111e-13 0)
(6.71717 2.84302e-13 0)
(6.71717 2.50987e-13 0)
(6.71717 7.56831e-14 0)
(6.71717 5.12755e-14 0)
(6.71717 5.96536e-14 0)
(6.71717 1.05512e-13 0)
(6.71717 1.32246e-13 0)
(6.71717 1.24238e-13 0)
(6.71717 1.09312e-13 0)
(6.71717 1.00981e-13 0)
(6.71717 1.18504e-13 0)
(6.71717 6.16401e-14 0)
(6.71717 1.25688e-15 0)
(6.71717 2.01368e-15 0)
(6.71717 -2.1267e-14 0)
(6.71717 -2.06202e-14 0)
(6.71717 -1.3769e-14 0)
(6.71717 1.935e-14 0)
(6.71717 7.08256e-14 0)
(6.71717 7.93204e-14 0)
(6.71717 7.33927e-14 0)
(6.71717 8.1174e-14 0)
(6.71717 1.05668e-13 0)
(6.71717 1.55844e-13 0)
(6.71717 1.77564e-13 0)
(6.71717 1.45708e-13 0)
(6.71717 8.02339e-14 0)
(6.71717 8.60615e-14 0)
(6.71717 1.21558e-13 0)
(6.71717 1.72703e-13 0)
(6.71717 1.62428e-13 0)
(6.71717 1.49409e-13 0)
(6.71717 1.14843e-13 0)
(6.71717 6.21341e-14 0)
(6.71717 -5.81434e-15 0)
(6.71717 3.64596e-14 0)
(6.71717 6.48212e-14 0)
(6.71717 5.92169e-14 0)
(6.71717 5.56063e-14 0)
(6.71717 3.66263e-14 0)
(6.71717 3.27023e-14 0)
(6.71717 7.36127e-15 0)
(6.71717 -4.6268e-14 0)
(6.71717 -5.4056e-14 0)
(6.71717 -3.98736e-15 0)
(6.71717 1.75664e-14 0)
(6.71717 2.73181e-14 0)
(6.71717 2.93517e-14 0)
(6.71717 1.68396e-14 0)
(6.71717 6.48545e-14 0)
(6.71717 1.3275e-13 0)
(6.71717 1.76354e-13 0)
(6.71717 5.93102e-15 0)
(6.71717 1.5226e-14 0)
(6.71717 3.74131e-14 0)
(6.71717 3.62963e-14 0)
(6.71717 4.34142e-14 0)
(6.71717 4.52745e-14 0)
(6.71717 5.91502e-14 0)
(6.71717 8.22409e-14 0)
(6.71717 1.3444e-13 0)
(6.71717 1.47272e-13 0)
(6.71717 1.03721e-13 0)
(6.71717 8.69817e-14 0)
(6.71717 5.10388e-14 0)
(6.71717 5.78133e-14 0)
(6.71717 6.26275e-14 0)
(6.71717 4.87484e-14 0)
(6.71717 7.31293e-14 0)
(6.71717 6.88719e-14 0)
(6.71717 8.73751e-14 0)
(6.71717 1.25748e-13 0)
(6.71717 1.00067e-13 0)
(6.71717 5.70465e-14 0)
(6.71717 3.31991e-14 0)
(6.71717 -5.72099e-14 0)
(6.71717 -1.25478e-13 0)
(6.71717 -1.31399e-13 0)
(6.71717 -7.87703e-14 0)
(6.71717 3.02652e-14 0)
(6.71717 2.91884e-14 0)
(6.71717 4.97853e-14 0)
(6.71717 5.84101e-15 0)
(6.71717 -1.76564e-13 0)
(6.71717 -1.89353e-13 0)
(6.71717 -2.03238e-13 0)
(6.71717 -1.58774e-13 0)
(6.71717 -1.20447e-13 0)
(6.71717 -9.74935e-14 0)
(6.71717 -4.84517e-14 0)
(6.71717 1.12113e-13 0)
(6.71717 1.55624e-13 0)
(6.71717 -2.85383e-15 0)
(6.71717 -8.8982e-15 0)
(6.71717 -2.81049e-15 0)
(6.71717 -3.23723e-14 0)
(6.71717 -4.08137e-14 0)
(6.71717 -1.81531e-14 0)
(6.71717 6.21441e-15 0)
(6.71717 6.52446e-15 0)
(6.71717 -1.68229e-14 0)
(6.71717 -3.30524e-14 0)
(6.71717 -4.36542e-14 0)
(6.71717 -6.21041e-14 0)
(6.71717 -8.38945e-14 0)
(6.71717 -7.84635e-14 0)
(6.71717 -5.25224e-14 0)
(6.71717 -4.34242e-14 0)
(6.71717 -4.23573e-14 0)
(6.71717 -3.25723e-14 0)
(6.71717 3.09553e-14 0)
(6.71717 4.15472e-14 0)
(6.71717 5.44627e-14 0)
(6.71717 5.64798e-14 0)
(6.71717 3.852e-14 0)
(6.71717 -1.14086e-14 0)
(6.71717 -3.03719e-14 0)
(6.71717 -7.38794e-15 0)
(6.71717 1.74764e-14 0)
(6.71717 3.93901e-14 0)
(6.71717 7.20324e-14 0)
(6.71717 4.05203e-14 0)
(6.71717 3.48393e-15 0)
(6.71717 -2.32874e-14 0)
(6.71717 -5.01953e-14 0)
(6.71717 -5.39126e-14 0)
(6.71717 -4.53778e-14 0)
(6.71717 -8.43812e-15 0)
(6.71717 5.87168e-14 0)
(6.71717 1.04851e-13 0)
(6.71717 8.54014e-14 0)
(6.71717 6.04315e-14 0)
(6.71717 1.43358e-15 0)
(6.71717 -5.54762e-15 0)
(6.71717 -3.48227e-14 0)
(6.71717 -4.49778e-14 0)
(6.71717 -3.37792e-14 0)
(6.71717 -1.02684e-15 0)
(6.71717 9.75168e-15 0)
(6.71717 -7.69133e-15 0)
(6.71717 -8.78518e-14 0)
(6.71717 -1.77301e-13 0)
(6.71717 -1.50263e-13 0)
(6.71717 -1.12273e-13 0)
(6.71717 -1.10612e-13 0)
(6.71717 -1.37277e-13 0)
(6.71717 -1.63852e-13 0)
(6.71717 -1.77347e-13 0)
(6.71717 -1.75917e-13 0)
(6.71717 -1.58567e-13 0)
(6.71717 -1.3784e-13 0)
(6.71717 -1.25978e-13 0)
(6.71717 -7.08389e-14 0)
(6.71717 -4.53212e-14 0)
(6.71717 -2.94351e-14 0)
(6.71717 -4.89184e-14 0)
(6.71717 2.85316e-14 0)
(6.71717 1.23621e-13 0)
(6.71717 1.13233e-13 0)
(6.71717 7.31726e-14 0)
(6.71717 3.50927e-14 0)
(6.71717 5.20323e-14 0)
(6.71717 4.55412e-14 0)
(6.71717 8.78285e-14 0)
(6.71717 1.36547e-13 0)
(6.71717 4.09537e-14 0)
(6.71717 -1.48059e-14 0)
(6.71717 -3.08987e-14 0)
(6.71717 2.27039e-15 0)
(6.71717 7.1259e-14 0)
(6.71717 7.05789e-14 0)
(6.71717 7.58051e-14 0)
(6.71717 1.06185e-14 0)
(6.71717 1.43358e-14 0)
(6.71717 1.61561e-14 0)
(6.71717 4.78116e-14 0)
(6.71717 6.98554e-14 0)
(6.71717 3.6623e-14 0)
(6.71717 -1.79898e-14 0)
(6.71717 -3.02486e-14 0)
(6.71717 -4.61213e-14 0)
(6.71717 -4.87117e-14 0)
(6.71717 -3.4566e-14 0)
(6.71717 -1.53693e-15 0)
(6.71717 -3.03386e-15 0)
(6.71717 -1.3369e-14 0)
(6.71717 -3.52494e-14 0)
(6.71717 -4.8465e-14 0)
(6.71717 -1.09836e-13 0)
(6.71717 -1.03048e-13 0)
(6.71717 -7.78268e-14 0)
(6.71717 -1.07675e-13 0)
(6.71717 -1.19084e-13 0)
(6.71717 -6.71149e-14 0)
(6.71717 -1.07319e-14 0)
(6.71717 -3.91734e-15 0)
(6.71717 3.38358e-14 0)
(6.71717 1.55017e-13 0)
(6.71717 1.67479e-13 0)
(6.71717 2.02225e-13 0)
(6.71717 1.32273e-13 0)
(6.71717 -7.90136e-15 0)
(6.71717 -1.88333e-14 0)
(6.71717 2.91784e-14 0)
(6.71717 1.14873e-13 0)
(6.71717 1.12626e-13 0)
(6.71717 4.36075e-14 0)
(6.71717 4.26974e-14 0)
(6.71717 4.93985e-14 0)
(6.71717 8.30843e-14 0)
(6.71717 8.40512e-14 0)
(6.71717 1.03516e-13 0)
(6.71717 -1.01918e-14 0)
(6.71717 -1.40091e-14 0)
(6.71717 1.07052e-14 0)
(6.71717 5.01587e-14 0)
(6.71717 4.67847e-14 0)
(6.71717 -2.94518e-14 0)
(6.71717 -1.20464e-13 0)
(6.71717 -1.56764e-13 0)
(6.71717 -1.37884e-13 0)
(6.71717 -8.53481e-14 0)
(6.71717 -8.49847e-14 0)
(6.71717 -5.11355e-14 0)
(6.71717 -7.87803e-15 0)
(6.71717 3.02752e-14 0)
(6.71717 4.13538e-14 0)
(6.71717 3.4676e-14 0)
(6.71717 1.75597e-14 0)
(6.71717 1.99568e-14 0)
(6.71717 2.5091e-14 0)
(6.71717 4.8535e-14 0)
(6.71717 5.91002e-14 0)
(6.71717 3.10054e-14 0)
(6.71717 2.59378e-15 0)
(6.71717 -2.83382e-15 0)
(6.71717 1.42858e-14 0)
(6.71717 -1.29356e-14 0)
(6.71717 -2.60745e-14 0)
(6.71717 -1.87232e-14 0)
(6.71717 -4.88784e-14 0)
(6.71717 -5.24157e-14 0)
(6.71717 -3.35391e-15 0)
(6.71717 4.66681e-14 0)
(6.71717 6.15573e-14 0)
(6.71717 1.3649e-14 0)
(6.71717 1.82698e-14 0)
(6.71717 3.49594e-14 0)
(6.71717 3.36191e-14 0)
(6.71717 5.82634e-14 0)
(6.71717 2.98185e-14 0)
(6.71717 2.48724e-15 0)
(6.71717 4.56746e-16 0)
(6.71717 -2.04802e-14 0)
(6.71717 -3.31391e-14 0)
(6.71717 -2.79615e-14 0)
(6.71717 -6.21041e-14 0)
(6.71717 -8.41979e-14 0)
(6.71717 -1.19144e-13 0)
(6.71717 -1.41104e-13 0)
(6.71717 -1.43215e-13 0)
(6.71717 -1.12653e-13 0)
(6.71717 -1.08415e-13 0)
(6.71717 -6.3701e-14 0)
(6.71717 1.00251e-14 0)
(6.71717 2.46709e-16 0)
(6.71717 -1.44258e-14 0)
(6.71717 -4.00569e-14 0)
(6.71717 2.46376e-14 0)
(6.71717 2.72047e-14 0)
(6.71717 2.19071e-14 0)
(6.71717 9.48864e-14 0)
(6.71717 1.13896e-13 0)
(6.71717 9.18125e-14 0)
(6.71717 6.62648e-14 0)
(6.71717 3.73264e-14 0)
(6.71717 -3.50827e-14 0)
(6.71717 -6.46445e-14 0)
(6.71717 -7.57264e-14 0)
(6.71717 -8.20408e-14 0)
(6.71717 -1.03501e-13 0)
(6.71717 -7.35527e-14 0)
(6.71717 -1.88833e-14 0)
(6.71717 2.24005e-14 0)
(6.71717 -1.89499e-14 0)
(6.71717 -5.13555e-14 0)
(6.71717 -2.29206e-14 0)
(6.71717 -9.68834e-15 0)
(6.71717 -5.17189e-14 0)
(6.71717 -9.74702e-14 0)
(6.71717 -4.59413e-14 0)
(6.71717 -1.54092e-14 0)
(6.71717 -1.26589e-14 0)
(6.71717 -1.37124e-14 0)
(6.71717 -2.49143e-14 0)
(6.71717 -7.97238e-14 0)
(6.71717 -8.33444e-14 0)
(6.71717 -4.34775e-14 0)
(6.71717 -2.3034e-14 0)
(6.71717 2.29073e-14 0)
(6.71717 3.73064e-14 0)
(6.71717 3.71231e-14 0)
(6.71717 2.09136e-14 0)
(6.71717 1.88699e-14 0)
(6.71717 -6.1844e-15 0)
(6.71717 -3.94235e-14 0)
(6.71717 6.11106e-15 0)
(6.71717 6.83318e-14 0)
(6.71717 9.51731e-14 0)
(6.71717 6.32643e-14 0)
(6.71717 5.31325e-14 0)
(6.71717 3.74798e-14 0)
(6.71717 4.08004e-14 0)
(6.71717 5.17689e-14 0)
(6.71717 5.50228e-14 0)
(6.71717 -2.77381e-15 0)
(6.71717 -1.59861e-14 0)
(6.71717 7.86136e-15 0)
(6.71717 3.17188e-14 0)
(6.71717 2.65212e-14 0)
(6.71717 4.57746e-14 0)
(6.71717 1.63128e-14 0)
(6.71717 -5.81834e-14 0)
(6.71717 -8.58682e-14 0)
(6.71717 -7.63132e-14 0)
(6.71717 -2.26072e-14 0)
(6.71717 1.02351e-14 0)
(6.71717 1.79364e-15 0)
(6.71717 -3.31724e-14 0)
(6.71717 -6.3901e-14 0)
(6.71717 -8.45479e-15 0)
(6.71717 8.06977e-14 0)
(6.71717 -1.73363e-16 0)
(6.71717 8.63482e-15 0)
(6.71717 3.59929e-14 0)
(6.71717 5.11988e-14 0)
(6.71717 5.47328e-14 0)
(6.71717 6.84352e-14 0)
(6.71717 9.50497e-14 0)
(6.71717 1.16193e-13 0)
(6.71717 1.43428e-13 0)
(6.71717 1.32546e-13 0)
(6.71717 1.146e-13 0)
(6.71717 6.06405e-14 0)
(6.71717 2.07269e-14 0)
(6.71717 1.81698e-14 0)
(6.71717 1.36557e-14 0)
(6.71717 7.57464e-15 0)
(6.71717 3.82099e-14 0)
(6.71717 7.31793e-14 0)
(6.71717 5.45661e-14 0)
(6.71717 -6.73683e-14 0)
(6.71717 -1.10559e-13 0)
(6.71717 -9.38262e-14 0)
(6.71717 -3.00719e-14 0)
(6.71717 4.0407e-15 0)
(6.71717 -5.77766e-15 0)
(6.71717 -1.909e-14 0)
(6.71717 2.31807e-14 0)
(6.71717 6.33209e-14 0)
(6.71717 9.2446e-14 0)
(6.71717 1.00871e-13 0)
(6.71717 9.02356e-14 0)
(6.71717 7.78068e-14 0)
(6.71717 7.20924e-14 0)
(6.71717 3.33158e-14 0)
(6.71717 2.8705e-15 0)
(6.71717 -1.89266e-14 0)
(6.71717 -2.79348e-14 0)
(6.71717 -4.13071e-14 0)
(6.71717 -4.12471e-14 0)
(6.71717 -3.81917e-14 0)
(6.71717 9.2916e-15 0)
(6.71717 2.05435e-14 0)
(6.71717 4.53978e-14 0)
(6.71717 7.9077e-14 0)
(6.71717 8.18208e-14 0)
(6.71717 6.90753e-14 0)
(6.71717 4.30341e-14 0)
(6.71717 2.25272e-14 0)
(6.71717 4.29274e-14 0)
(6.71717 3.34925e-14 0)
(6.71717 2.08869e-14 0)
(6.71717 6.39777e-15 0)
(6.71717 1.07052e-14 0)
(6.71717 2.02402e-14 0)
(6.71717 -2.24672e-14 0)
(6.71717 -1.08472e-13 0)
(6.71717 -1.7418e-13 0)
(6.71717 -1.36277e-13 0)
(6.71717 -1.33926e-13 0)
(6.71717 -1.34457e-13 0)
(6.71717 -1.44422e-13 0)
(6.71717 -1.64805e-13 0)
(6.71717 -1.20441e-13 0)
(6.71717 -4.73782e-14 0)
(6.71717 -1.7473e-14 0)
(6.71717 -1.07285e-14 0)
(6.71717 -2.35474e-14 0)
(6.71717 -2.86783e-14 0)
(6.71717 -5.03454e-14 0)
(6.71717 6.99087e-14 0)
(6.71717 1.77814e-13 0)
(6.71717 1.81095e-13 0)
(6.71717 1.89706e-13 0)
(6.71717 1.29579e-13 0)
(6.71717 7.11723e-14 0)
(6.71717 7.15557e-14 0)
(6.71717 7.46796e-14 0)
(6.71717 -1.31023e-15 0)
(6.71717 -8.79185e-14 0)
(6.71717 -9.22322e-14 0)
(6.71717 -1.23588e-14 0)
(6.71717 -6.90786e-15 0)
(6.71717 -3.51394e-15 0)
(6.71717 -3.95068e-15 0)
(6.71717 -2.54644e-14 0)
(6.71717 -5.36226e-14 0)
(6.71717 -4.8325e-14 0)
(6.71717 -3.10287e-14 0)
(6.71717 -2.05836e-14 0)
(6.71717 -4.8395e-14 0)
(6.71717 -6.45278e-14 0)
(6.71717 -7.85336e-14 0)
(6.71717 -1.38557e-14 0)
(6.71717 -1.84365e-14 0)
(6.71717 -2.47176e-14 0)
(6.71717 -5.83968e-14 0)
(6.71717 -1.26799e-13 0)
(6.71717 -1.43318e-13 0)
(6.71717 -1.52396e-13 0)
(6.71717 -1.60538e-13 0)
(6.71717 -9.80103e-14 0)
(6.71717 -8.69817e-14 0)
(6.71717 -7.84702e-14 0)
(6.71717 -1.55794e-14 0)
(6.71717 1.94167e-14 0)
(6.71717 5.801e-14 0)
(6.71717 1.84165e-14 0)
(6.71717 -2.36041e-15 0)
(6.71717 -5.87568e-14 0)
(6.71717 -3.58862e-14 0)
(6.71717 7.85302e-14 0)
(6.71717 8.43179e-14 0)
(6.71717 1.01831e-13 0)
(6.71717 8.76518e-14 0)
(6.71717 7.07122e-15 0)
(6.71717 -1.91733e-14 0)
(6.71717 -7.736e-14 0)
(6.71717 -9.40962e-14 0)
(6.71717 -4.02236e-14 0)
(6.71717 -3.88236e-14 0)
(6.71717 4.6108e-15 0)
(6.71717 -4.46077e-15 0)
(6.71717 -2.01902e-14 0)
(6.71717 -4.36442e-14 0)
(6.71717 -3.71931e-14 0)
(6.71717 -3.00018e-14 0)
(6.71717 -2.19405e-14 0)
(6.71717 -1.55827e-14 0)
(6.71717 -1.45492e-14 0)
(6.71717 4.57412e-15 0)
(6.71717 -9.16158e-15 0)
(6.71717 -2.65513e-14 0)
(6.71717 -6.5878e-14 0)
(6.71717 -7.40328e-14 0)
(6.71717 -4.76249e-14 0)
(6.71717 4.30074e-14 0)
(6.71717 5.31758e-14 0)
(6.71717 4.32175e-14 0)
(6.71717 -1.55127e-14 0)
(6.71717 -2.39975e-14 0)
(6.71717 -3.71931e-14 0)
(6.71717 -2.29706e-14 0)
(6.71717 -4.14638e-14 0)
(6.71717 -4.93752e-14 0)
(6.71717 -6.52079e-14 0)
(6.71717 -3.92668e-14 0)
(6.71717 -2.27239e-14 0)
(6.71717 -5.92369e-14 0)
(6.71717 -1.47619e-13 0)
(6.71717 -2.05355e-13 0)
(6.71717 -1.50789e-13 0)
(6.71717 -5.788e-14 0)
(6.71717 -5.44661e-14 0)
(6.71717 -2.07669e-14 0)
(6.71717 2.61545e-14 0)
(6.71717 -4.2514e-14 0)
(6.71717 -1.7113e-13 0)
(6.71717 -2.11627e-13 0)
(6.71717 -2.35071e-13 0)
(6.71717 -1.63434e-13 0)
(6.71717 2.03802e-14 0)
(6.71717 2.34807e-14 0)
(6.71717 3.82399e-15 0)
(6.71717 -1.37424e-14 0)
(6.71717 -1.71463e-14 0)
(6.71717 1.35423e-14 0)
(6.71717 2.92817e-14 0)
(6.71717 2.02802e-14 0)
(6.71717 5.37693e-14 0)
(6.71717 1.11943e-13 0)
(6.71717 9.37695e-14 0)
(6.71717 -1.78864e-14 0)
(6.71717 -1.03735e-13 0)
(6.71717 -1.11193e-13 0)
(6.71717 5.44561e-14 0)
(6.71717 1.22611e-13 0)
(6.71717 1.30973e-13 0)
(6.71717 1.01714e-13 0)
(6.71717 8.31844e-14 0)
(6.71717 8.97422e-14 0)
(6.71717 2.55544e-14 0)
(6.71717 -1.12786e-14 0)
(6.71717 -1.56527e-14 0)
(6.71717 -2.01235e-14 0)
(6.71717 -3.26156e-14 0)
(6.71717 -2.44376e-14 0)
(6.71717 7.55797e-15 0)
(6.71717 -5.75099e-15 0)
(6.71717 -7.97804e-15 0)
(6.71717 -4.94085e-14 0)
(6.71717 -9.76902e-14 0)
(6.71717 -9.73801e-14 0)
(6.71717 -8.92154e-14 0)
(6.71717 -9.74268e-14 0)
(6.71717 -1.10152e-13 0)
(6.71717 -8.96355e-14 0)
(6.71717 -7.68433e-14 0)
(6.71717 -1.22891e-13 0)
(6.71717 -1.44825e-13 0)
(6.71717 -1.36095e-13 0)
(6.71717 -5.25757e-15 0)
(6.71717 -2.69713e-15 0)
(6.71717 -6.74783e-15 0)
(6.71717 2.04102e-14 0)
(6.71717 2.94851e-14 0)
(6.71717 2.59945e-14 0)
(6.71717 4.04837e-14 0)
(6.71717 2.76381e-14 0)
(6.71717 6.03104e-15 0)
(6.71717 -1.19254e-14 0)
(6.71717 -6.94587e-14 0)
(6.71717 -9.30794e-14 0)
(6.71717 -7.47662e-14 0)
(6.71717 -5.06087e-15 0)
(6.71717 6.09772e-15 0)
(6.71717 -1.927e-15 0)
(6.71717 1.04951e-14 0)
(6.71717 -2.66746e-14 0)
(6.71717 -1.23988e-14 0)
(6.71717 7.44129e-15 0)
(6.71717 -3.91934e-14 0)
(6.71717 -7.20758e-14 0)
(6.71717 -6.65815e-14 0)
(6.71717 -4.38909e-14 0)
(6.71717 -3.23456e-14 0)
(6.71717 -3.06853e-14 0)
(6.71717 -2.76181e-14 0)
(6.71717 1.94767e-14 0)
(6.71717 1.27889e-13 0)
(6.71717 1.54997e-13 0)
(6.71717 8.96788e-14 0)