/*--------------------------------*- C++ -*----------------------------------*\
| =========                 |                                                 |
| \\      /  F ield         | OpenFOAM: The Open Source CFD Toolbox           |
|  \\    /   O peration     | Version:  2206                                  |
|   \\  /    A nd           | Website:  www.openfoam.com                      |
|    \\/     M anipulation  |                                                 |
\*---------------------------------------------------------------------------*/
FoamFile
{
    version     2.0;
    format      ascii;
    arch        "LSB;label=32;scalar=64";
    class       volVectorField;
    location    "0.12";
    object      U;
}
// * * * * * * * * * * * * * * * * * * * * * * * * * * * * * * * * * * * * * //

dimensions      [0 1 -1 0 0 0 0];

internalField   nonuniform List<vector> 
4800
(
(4.13131 -7.90136e-15 0)
(4.13131 -2.74381e-14 0)
(4.13131 -9.77502e-15 0)
(4.13131 6.83785e-14 0)
(4.13131 8.34211e-14 0)
(4.13131 6.03571e-14 0)
(4.13131 1.77064e-14 0)
(4.13131 1.19687e-14 0)
(4.13131 2.3404e-14 0)
(4.13131 1.72063e-14 0)
(4.13131 -2.63412e-14 0)
(4.13131 -5.38293e-14 0)
(4.13131 -6.69482e-14 0)
(4.13131 -6.12672e-14 0)
(4.13131 -1.65762e-14 0)
(4.13131 -3.05386e-15 0)
(4.13131 -3.56128e-14 0)
(4.13131 -4.96286e-14 0)
(4.13131 -6.54513e-14 0)
(4.13131 -7.1189e-14 0)
(4.13131 -8.44613e-14 0)
(4.13131 -6.06105e-14 0)
(4.13131 -2.96351e-14 0)
(4.13131 1.31356e-14 0)
(4.13131 9.55398e-14 0)
(4.13131 9.56465e-14 0)
(4.13131 8.40245e-14 0)
(4.13131 5.33192e-14 0)
(4.13131 8.3141e-14 0)
(4.13131 8.73718e-14 0)
(4.13131 1.23351e-13 0)
(4.13131 1.9284e-13 0)
(4.13131 2.09273e-13 0)
(4.13131 2.00078e-13 0)
(4.13131 1.27952e-13 0)
(4.13131 8.71617e-14 0)
(4.13131 7.40728e-14 0)
(4.13131 5.52895e-14 0)
(4.13131 5.82934e-14 0)
(4.13131 7.1159e-14 0)
(4.13131 -1.36724e-14 0)
(4.13131 -2.96918e-14 0)
(4.13131 -1.54693e-14 0)
(4.13131 2.66113e-14 0)
(4.13131 1.55227e-13 0)
(4.13131 1.72003e-13 0)
(4.13131 9.99206e-14 0)
(4.13131 7.31326e-14 0)
(4.13131 1.74163e-14 0)
(4.13131 2.3414e-14 0)
(4.13131 8.64483e-15 0)
(4.13131 -1.43625e-14 0)
(4.13131 -5.69365e-14 0)
(4.13131 -9.74868e-14 0)
(4.13131 -9.11391e-14 0)
(4.13131 -4.35975e-14 0)
(4.13131 -3.26856e-14 0)
(4.13131 -6.54913e-14 0)
(4.13131 -8.45113e-14 0)
(4.13131 -1.46879e-13 0)
(4.13131 -1.5525e-13 0)
(4.13131 -1.04865e-13 0)
(4.13131 -2.84316e-14 0)
(4.13131 1.74397e-14 0)
(4.13131 2.13537e-14 0)
(4.13131 2.00268e-14 0)
(4.13131 5.44994e-14 0)
(4.13131 5.29858e-14 0)
(4.13131 6.63115e-14 0)
(4.13131 1.02594e-13 0)
(4.13131 1.69806e-13 0)
(4.13131 1.85319e-13 0)
(4.13131 1.88553e-13 0)
(4.13131 1.62275e-13 0)
(4.13131 2.36898e-13 0)
(4.13131 2.19581e-13 0)
(4.13131 1.97394e-13 0)
(4.13131 1.21381e-13 0)
(4.13131 9.77869e-14 0)
(4.13131 1.91753e-13 0)
(4.13131 -4.29074e-15 0)
(4.13131 1.30523e-14 0)
(4.13131 1.56427e-14 0)
(4.13131 -1.63195e-14 0)
(4.13131 -9.45497e-15 0)
(4.13131 5.36526e-14 0)
(4.13131 8.33144e-14 0)
(4.13131 8.48413e-14 0)
(4.13131 3.87967e-14 0)
(4.13131 4.15405e-15 0)
(4.13131 1.44725e-14 0)
(4.13131 -2.44942e-14 0)
(4.13131 -7.22658e-14 0)
(4.13131 -5.34392e-14 0)
(4.13131 -5.99237e-14 0)
(4.13131 -4.4541e-14 0)
(4.13131 4.27741e-15 0)
(4.13131 1.80598e-14 0)
(4.13131 -1.68129e-14 0)
(4.13131 -8.16474e-14 0)
(4.13131 -7.23225e-14 0)
(4.13131 -5.0322e-14 0)
(4.13131 3.15821e-14 0)
(4.13131 9.54165e-14 0)
(4.13131 1.11203e-13 0)
(4.13131 9.31961e-14 0)
(4.13131 7.61898e-14 0)
(4.13131 6.49345e-14 0)
(4.13131 5.63664e-14 0)
(4.13131 5.14355e-14 0)
(4.13131 6.58547e-14 0)
(4.13131 5.68465e-14 0)
(4.13131 3.51461e-14 0)
(4.13131 1.10732e-13 0)
(4.13131 1.14326e-13 0)
(4.13131 1.27149e-13 0)
(4.13131 1.38337e-13 0)
(4.13131 1.11849e-13 0)
(4.13131 1.82335e-13 0)
(4.13131 2.55508e-13 0)
(4.13131 3.52394e-15 0)
(4.13131 1.81131e-14 0)
(4.13131 7.90403e-14 0)
(4.13131 4.20473e-14 0)
(4.13131 -3.86133e-14 0)
(4.13131 -5.81734e-14 0)
(4.13131 -2.8825e-14 0)
(4.13131 -2.28806e-14 0)
(4.13131 3.26923e-14 0)
(4.13131 1.5466e-14 0)
(4.13131 1.80298e-14 0)
(4.13131 2.57044e-14 0)
(4.13131 4.03203e-14 0)
(4.13131 6.94887e-14 0)
(4.13131 1.09992e-13 0)
(4.13131 8.30377e-14 0)
(4.13131 -1.65329e-14 0)
(4.13131 -1.29989e-14 0)
(4.13131 -4.44543e-14 0)
(4.13131 4.11471e-14 0)
(4.13131 8.55881e-14 0)
(4.13131 1.41631e-13 0)
(4.13131 1.62945e-13 0)
(4.13131 1.66472e-13 0)
(4.13131 1.72276e-13 0)
(4.13131 1.86049e-13 0)
(4.13131 1.5654e-13 0)
(4.13131 6.63981e-14 0)
(4.13131 1.07192e-13 0)
(4.13131 7.60698e-14 0)
(4.13131 7.69033e-14 0)
(4.13131 5.82567e-14 0)
(4.13131 -1.37257e-14 0)
(4.13131 8.17141e-15 0)
(4.13131 -2.71347e-14 0)
(4.13131 -1.72596e-14 0)
(4.13131 -3.40726e-15 0)
(4.13131 6.24074e-14 0)
(4.13131 1.66139e-13 0)
(4.13131 1.68038e-13 0)
(4.13131 4.81083e-15 0)
(4.13131 1.3669e-16 0)
(4.13131 -9.82503e-15 0)
(4.13131 -1.47325e-14 0)
(4.13131 -5.6003e-14 0)
(4.13131 -7.69066e-14 0)
(4.13131 -5.08788e-14 0)
(4.13131 -4.83917e-14 0)
(4.13131 6.66782e-18 0)
(4.13131 7.37494e-14 0)
(4.13131 1.40111e-13 0)
(4.13131 2.09983e-13 0)
(4.13131 2.00278e-13 0)
(4.13131 1.07579e-13 0)
(4.13131 1.02531e-13 0)
(4.13131 6.23974e-14 0)
(4.13131 -2.22838e-14 0)
(4.13131 -7.40295e-14 0)
(4.13131 -5.91002e-14 0)
(4.13131 -1.34957e-14 0)
(4.13131 7.44462e-14 0)
(4.13131 1.22611e-13 0)
(4.13131 9.79602e-14 0)
(4.13131 8.29777e-14 0)
(4.13131 1.50859e-14 0)
(4.13131 7.70166e-14 0)
(4.13131 7.18824e-14 0)
(4.13131 8.53614e-14 0)
(4.13131 6.69782e-15 0)
(4.13131 8.88487e-15 0)
(4.13131 -1.46492e-14 0)
(4.13131 -2.15771e-14 0)
(4.13131 -5.6143e-15 0)
(4.13131 3.90534e-14 0)
(4.13131 -3.52728e-15 0)
(4.13131 -4.94419e-14 0)
(4.13131 -2.40442e-14 0)
(4.13131 2.91917e-14 0)
(4.13131 2.01268e-14 0)
(4.13131 2.46434e-14 0)
(4.13131 -7.5313e-15 0)
(4.13131 2.03368e-14 0)
(4.13131 2.21672e-14 0)
(4.13131 2.1517e-14 0)
(4.13131 -4.36075e-15 0)
(4.13131 -2.76814e-14 0)
(4.13131 -3.29924e-14 0)
(4.13131 -3.51761e-14 0)
(4.13131 -1.21854e-14 0)
(4.13131 6.3581e-14 0)
(4.13131 1.08765e-13 0)
(4.13131 8.4888e-14 0)
(4.13131 1.61428e-14 0)
(4.13131 -1.02061e-13 0)
(4.13131 -1.152e-13 0)
(4.13131 -9.92238e-14 0)
(4.13131 -1.33246e-13 0)
(4.13131 -1.67276e-13 0)
(4.13131 -1.7363e-13 0)
(4.13131 -1.02548e-13 0)
(4.13131 -4.09404e-14 0)
(4.13131 -4.12571e-14 0)
(4.13131 -4.67247e-14 0)
(4.13131 -7.03988e-14 0)
(4.13131 -1.34487e-13 0)
(4.13131 -1.7384e-13 0)
(4.13131 -7.46496e-14 0)
(4.13131 -4.59513e-14 0)
(4.13131 -9.01522e-14 0)
(4.13131 -1.1402e-13 0)
(4.13131 -8.55781e-14 0)
(4.13131 -7.94937e-14 0)
(4.13131 -2.21038e-15 0)
(4.13131 2.9235e-14 0)
(4.13131 7.48429e-14 0)
(4.13131 1.03358e-13 0)
(4.13131 4.69748e-14 0)
(4.13131 -1.49092e-14 0)
(4.13131 -1.53793e-14 0)
(4.13131 3.44946e-14 0)
(4.13131 -6.72449e-15 0)
(4.13131 1.37124e-14 0)
(4.13131 2.41475e-14 0)
(4.13131 1.94034e-14 0)
(4.13131 4.6448e-14 0)
(4.13131 5.51695e-14 0)
(4.13131 2.46709e-14 0)
(4.13131 -3.82399e-15 0)
(4.13131 -4.10304e-14 0)
(4.13131 -4.49644e-14 0)
(4.13131 -7.9047e-14 0)
(4.13131 -1.27789e-13 0)
(4.13131 -1.07325e-13 0)
(4.13131 -1.26102e-13 0)
(4.13131 -1.45682e-13 0)
(4.13131 -1.52106e-13 0)
(4.13131 -1.1515e-13 0)
(4.13131 -8.99355e-14 0)
(4.13131 -1.00274e-13 0)
(4.13131 -1.26842e-13 0)
(4.13131 -1.13656e-13 0)
(4.13131 -1.11336e-13 0)
(4.13131 -7.54497e-14 0)
(4.13131 -7.73534e-14 0)
(4.13131 -3.4996e-14 0)
(4.13131 -7.44162e-14 0)
(4.13131 -8.46213e-14 0)
(4.13131 -1.28065e-13 0)
(4.13131 -8.75084e-14 0)
(4.13131 -6.9442e-14 0)
(4.13131 -4.2474e-14 0)
(4.13131 -3.59629e-14 0)
(4.13131 -2.32373e-14 0)
(4.13131 -5.70298e-14 0)
(4.13131 1.60928e-14 0)
(4.13131 8.91854e-14 0)
(4.13131 7.35194e-14 0)
(4.13131 -2.01701e-15 0)
(4.13131 -8.09807e-15 0)
(4.13131 1.26726e-14 0)
(4.13131 -7.22125e-15 0)
(4.13131 -4.45277e-14 0)
(4.13131 -9.00089e-14 0)
(4.13131 -8.58015e-14 0)
(4.13131 -5.785e-14 0)
(4.13131 1.08219e-14 0)
(4.13131 3.90567e-14 0)
(4.13131 3.62596e-14 0)
(4.13131 1.72596e-14 0)
(4.13131 -9.40262e-14 0)
(4.13131 -1.85425e-13 0)
(4.13131 -1.90666e-13 0)
(4.13131 -5.63064e-14 0)
(4.13131 3.73198e-14 0)
(4.13131 2.74381e-14 0)
(4.13131 5.10088e-15 0)
(4.13131 1.78731e-14 0)
(4.13131 1.95167e-14 0)
(4.13131 -3.93335e-14 0)
(4.13131 -7.24892e-14 0)
(4.13131 -5.15422e-14 0)
(4.13131 -1.12253e-14 0)
(4.13131 -4.68681e-14 0)
(4.13131 3.01185e-14 0)
(4.13131 5.91002e-14 0)
(4.13131 3.68897e-14 0)
(4.13131 -2.7048e-14 0)
(4.13131 -3.27457e-14 0)
(4.13131 4.58346e-14 0)
(4.13131 7.53597e-14 0)
(4.13131 7.89103e-14 0)
(4.13131 6.94587e-14 0)
(4.13131 5.15822e-14 0)
(4.13131 5.36159e-14 0)
(4.13131 1.20221e-14 0)
(4.13131 8.23809e-15 0)
(4.13131 9.8617e-14 0)
(4.13131 9.80036e-14 0)
(4.13131 6.10105e-14 0)
(4.13131 1.28708e-14 0)
(4.13131 -2.80715e-15 0)
(4.13131 1.79264e-14 0)
(4.13131 4.50111e-14 0)
(4.13131 3.34191e-14 0)
(4.13131 1.67162e-14 0)
(4.13131 9.03489e-16 0)
(4.13131 1.5256e-14 0)
(4.13131 3.07486e-14 0)
(4.13131 2.88316e-14 0)
(4.13131 9.25493e-15 0)
(4.13131 -5.08354e-14 0)
(4.13131 -2.51077e-14 0)
(4.13131 1.81031e-15 0)
(4.13131 9.32161e-15 0)
(4.13131 1.85032e-15 0)
(4.13131 -1.75264e-14 0)
(4.13131 -9.42163e-15 0)
(4.13131 -4.58746e-15 0)
(4.13131 6.52979e-14 0)
(4.13131 9.92638e-14 0)
(4.13131 7.47462e-14 0)
(4.13131 6.93987e-14 0)
(4.13131 -4.24707e-14 0)
(4.13131 -2.35041e-14 0)
(4.13131 8.36478e-15 0)
(4.13131 -1.49026e-15 0)
(4.13131 -2.59878e-14 0)
(4.13131 -2.65479e-14 0)
(4.13131 -4.76682e-14 0)
(4.13131 -4.47977e-14 0)
(4.13131 -2.39741e-14 0)
(4.13131 3.05819e-14 0)
(4.13131 1.02554e-13 0)
(4.13131 1.18364e-13 0)
(4.13131 1.28802e-13 0)
(4.13131 2.58778e-14 0)
(4.13131 1.946e-14 0)
(4.13131 6.7605e-14 0)
(4.13131 7.24325e-14 0)
(4.13131 2.77175e-14 0)
(4.13131 1.83698e-14 0)
(4.13131 1.83932e-14 0)
(4.13131 5.09421e-14 0)
(4.13131 5.47528e-14 0)
(4.13131 5.07221e-14 0)
(4.13131 5.31592e-14 0)
(4.13131 8.40812e-15 0)
(4.13131 -5.88035e-14 0)
(4.13131 -5.94069e-14 0)
(4.13131 4.32441e-14 0)
(4.13131 6.33143e-14 0)
(4.13131 8.99955e-14 0)
(4.13131 9.67234e-14 0)
(4.13131 6.68349e-14 0)
(4.13131 2.77281e-14 0)
(4.13131 3.70297e-14 0)
(4.13131 3.82066e-14 0)
(4.13131 4.47211e-14 0)
(4.13131 1.02731e-13 0)
(4.13131 1.49062e-13 0)
(4.13131 8.94988e-14 0)
(4.13131 8.26909e-14 0)
(4.13131 4.38709e-14 0)
(4.13131 -3.44526e-14 0)
(4.13131 -1.58787e-13 0)
(4.13131 -1.65815e-13 0)
(4.13131 -1.24535e-13 0)
(4.13131 -1.25848e-13 0)
(4.13131 -1.31033e-13 0)
(4.13131 -6.53713e-14 0)
(4.13131 3.34058e-15 0)
(4.13131 2.20371e-15 0)
(4.13131 1.57694e-15 0)
(4.13131 -2.43275e-14 0)
(4.13131 -2.36708e-15 0)
(4.13131 1.72663e-14 0)
(4.13131 -5.23924e-14 0)
(4.13131 -5.27191e-14 0)
(4.13131 -7.98738e-14 0)
(4.13131 -6.31229e-14 0)
(4.13131 3.58062e-15 0)
(4.13131 -2.53844e-14 0)
(4.13131 -4.00102e-14 0)
(4.13131 -4.03303e-14 0)
(4.13131 -1.99601e-14 0)
(4.13131 -3.39425e-14 0)
(4.13131 -4.69514e-14 0)
(4.13131 -5.98103e-14 0)
(4.13131 -4.79616e-14 0)
(4.13131 -2.7038e-14 0)
(4.13131 5.96703e-14 0)
(4.13131 1.30586e-13 0)
(4.13131 1.65335e-13 0)
(4.13131 1.98474e-13 0)
(4.13131 2.3393e-13 0)
(4.13131 2.42895e-13 0)
(4.13131 1.81445e-13 0)
(4.13131 1.20274e-13 0)
(4.13131 1.17107e-13 0)
(4.13131 8.93488e-14 0)
(4.13131 6.71916e-14 0)
(4.13131 4.03603e-14 0)
(4.13131 5.48628e-14 0)
(4.13131 6.92453e-15 0)
(4.13131 -6.23108e-14 0)
(4.13131 -5.30492e-14 0)
(4.13131 -2.74414e-14 0)
(4.13131 -9.93505e-14 0)
(4.13131 -1.13903e-13 0)
(4.13131 -2.98352e-14 0)
(4.13131 8.77885e-14 0)
(4.13131 1.01027e-13 0)
(4.13131 1.78764e-14 0)
(4.13131 -6.17107e-14 0)
(4.13131 -6.5378e-14 0)
(4.13131 -5.47961e-14 0)
(4.13131 -7.97838e-14 0)
(4.13131 7.04522e-14 0)
(4.13131 1.03588e-13 0)
(4.13131 1.0607e-13 0)
(4.13131 -3.32724e-15 0)
(4.13131 1.14653e-14 0)
(4.13131 1.66395e-14 0)
(4.13131 -3.2539e-15 0)
(4.13131 -1.24221e-14 0)
(4.13131 -3.84133e-14 0)
(4.13131 -1.46259e-14 0)
(4.13131 1.36924e-14 0)
(4.13131 6.53313e-14 0)
(4.13131 8.61882e-14 0)
(4.13131 1.25558e-13 0)
(4.13131 8.19442e-14 0)
(4.13131 5.29225e-14 0)
(4.13131 2.04102e-14 0)
(4.13131 4.76849e-14 0)
(4.13131 1.42535e-13 0)
(4.13131 1.21708e-13 0)
(4.13131 2.81982e-14 0)
(4.13131 -5.18089e-15 0)
(4.13131 -7.78468e-15 0)
(4.13131 7.40461e-15 0)
(4.13131 -6.5778e-15 0)
(4.13131 2.99052e-15 0)
(4.13131 9.85837e-15 0)
(4.13131 4.66247e-14 0)
(4.13131 6.91653e-14 0)
(4.13131 6.63315e-14 0)
(4.13131 -2.84783e-14 0)
(4.13131 -5.09355e-14 0)
(4.13131 -1.79264e-14 0)
(4.13131 3.0772e-15 0)
(4.13131 -3.25056e-15 0)
(4.13131 -3.28657e-14 0)
(4.13131 5.77133e-14 0)
(4.13131 9.95705e-14 0)
(4.13131 1.09035e-13 0)
(4.13131 1.10056e-13 0)
(4.13131 1.1331e-13 0)
(4.13131 1.19401e-13 0)
(4.13131 1.49781e-13 0)
(4.13131 4.17072e-15 0)
(4.13131 2.86783e-14 0)
(4.13131 3.12421e-14 0)
(4.13131 4.70681e-14 0)
(4.13131 4.59779e-14 0)
(4.13131 3.60662e-14 0)
(4.13131 7.87369e-14 0)
(4.13131 1.3416e-13 0)
(4.13131 1.70896e-13 0)
(4.13131 2.00318e-13 0)
(4.13131 1.20074e-13 0)
(4.13131 1.28022e-13 0)
(4.13131 1.02611e-13 0)
(4.13131 -1.23055e-14 0)
(4.13131 -1.03351e-16 0)
(4.13131 7.66766e-14 0)
(4.13131 9.10657e-14 0)
(4.13131 1.76964e-14 0)
(4.13131 -3.55028e-14 0)
(4.13131 -6.89886e-14 0)
(4.13131 -4.54145e-14 0)
(4.13131 3.07253e-14 0)
(4.13131 5.52762e-14 0)
(4.13131 9.03123e-14 0)
(4.13131 3.21689e-14 0)
(4.13131 -6.05538e-14 0)
(4.13131 -5.54862e-14 0)
(4.13131 -3.02352e-14 0)
(4.13131 -6.12406e-14 0)
(4.13131 -1.06785e-13 0)
(4.13131 -1.56607e-13 0)
(4.13131 -1.14696e-13 0)
(4.13131 8.03472e-16 0)
(4.13131 7.57931e-14 0)
(4.13131 6.61314e-14 0)
(4.13131 5.30058e-14 0)
(4.13131 4.12438e-14 0)
(4.13131 1.57027e-14 0)
(4.13131 8.78652e-14 0)
(4.13131 6.28794e-14 0)
(4.13131 1.14586e-14 0)
(4.13131 -1.37024e-14 0)
(4.13131 -4.62246e-14 0)
(4.13131 -1.55027e-14 0)
(4.13131 4.53578e-14 0)
(4.13131 7.67466e-14 0)
(4.13131 5.31959e-14 0)
(4.13131 9.17125e-14 0)
(4.13131 8.86153e-14 0)
(4.13131 6.71916e-14 0)
(4.13131 7.62098e-14 0)
(4.13131 1.21478e-13 0)
(4.13131 1.5462e-13 0)
(4.13131 1.82575e-13 0)
(4.13131 1.07209e-13 0)
(4.13131 3.832e-14 0)
(4.13131 1.79164e-14 0)
(4.13131 1.27555e-14 0)
(4.13131 -2.37541e-14 0)
(4.13131 -3.55961e-14 0)
(4.13131 4.53745e-15 0)
(4.13131 4.32108e-14 0)
(4.13131 8.74451e-14 0)
(4.13131 7.70566e-14 0)
(4.13131 3.63396e-16 0)
(4.13131 -1.19121e-13 0)
(4.13131 -1.50059e-13 0)
(4.13131 -1.5249e-13 0)
(4.13131 -1.35613e-13 0)
(4.13131 -6.08172e-14 0)
(4.13131 -1.68429e-14 0)
(4.13131 8.80085e-14 0)
(4.13131 1.62245e-13 0)
(4.13131 1.1822e-14 0)
(4.13131 -1.36824e-14 0)
(4.13131 -4.81717e-14 0)
(4.13131 -1.66029e-15 0)
(4.13131 3.13621e-14 0)
(4.13131 8.52481e-14 0)
(4.13131 1.11929e-13 0)
(4.13131 1.15787e-14 0)
(4.13131 3.20055e-15 0)
(4.13131 -1.26789e-14 0)
(4.13131 -3.84733e-14 0)
(4.13131 -2.86816e-14 0)
(4.13131 1.53993e-14 0)
(4.13131 -1.68029e-15 0)
(4.13131 4.71081e-15 0)
(4.13131 2.36074e-14 0)
(4.13131 1.53226e-14 0)
(4.13131 3.56628e-14 0)
(4.13131 6.89552e-14 0)
(4.13131 6.33243e-14 0)
(4.13131 1.07048e-13 0)
(4.13131 9.75769e-14 0)
(4.13131 -8.72684e-14 0)
(4.13131 -1.9393e-13 0)
(4.13131 -1.52033e-13 0)
(4.13131 -1.03868e-13 0)
(4.13131 -6.62681e-14 0)
(4.13131 7.07456e-15 0)
(4.13131 1.63495e-14 0)
(4.13131 9.08824e-15 0)
(4.13131 -3.74698e-14 0)
(4.13131 -6.06838e-14 0)
(4.13131 -8.71851e-14 0)
(4.13131 -8.16141e-14 0)
(4.13131 -5.41527e-14 0)
(4.13131 -3.19188e-14 0)
(4.13131 -1.12919e-14 0)
(4.13131 4.07937e-14 0)
(4.13131 1.33663e-13 0)
(4.13131 1.26295e-13 0)
(4.13131 8.60415e-14 0)
(4.13131 6.9362e-14 0)
(4.13131 9.12858e-14 0)
(4.13131 1.27012e-13 0)
(4.13131 1.23111e-13 0)
(4.13131 5.12422e-14 0)
(4.13131 2.16132e-14 0)
(4.13131 -1.73063e-14 0)
(4.13131 -1.17987e-14 0)
(4.13131 2.82449e-14 0)
(4.13131 2.91917e-14 0)
(4.13131 -8.17475e-15 0)
(4.13131 -7.31426e-14 0)
(4.13131 -8.01272e-14 0)
(4.13131 -9.60366e-14 0)
(4.13131 -9.31561e-14 0)
(4.13131 -1.24005e-13 0)
(4.13131 -1.04855e-13 0)
(4.13131 -1.00157e-13 0)
(4.13131 -1.07419e-13 0)
(4.13131 -1.00904e-13 0)
(4.13131 -1.00207e-13 0)
(4.13131 -7.83835e-14 0)
(4.13131 5.35759e-15 0)
(4.13131 4.57146e-14 0)
(4.13131 8.41812e-14 0)
(4.13131 3.3069e-14 0)
(4.13131 1.93067e-14 0)
(4.13131 1.84465e-14 0)
(4.13131 -2.5271e-14 0)
(4.13131 -3.04786e-14 0)
(4.13131 -6.41777e-15 0)
(4.13131 2.86483e-14 0)
(4.13131 8.14307e-14 0)
(4.13131 9.99706e-14 0)
(4.13131 7.87369e-14 0)
(4.13131 6.79617e-14 0)
(4.13131 5.92736e-14 0)
(4.13131 3.52394e-14 0)
(4.13131 3.49327e-14 0)
(4.13131 7.87403e-14 0)
(4.13131 1.31589e-13 0)
(4.13131 1.29766e-13 0)
(4.13131 1.41454e-13 0)
(4.13131 8.92487e-14 0)
(4.13131 -4.42076e-15 0)
(4.13131 -1.51479e-14 0)
(4.13131 -3.3009e-14 0)
(4.13131 -2.63212e-14 0)
(4.13131 -2.93384e-15 0)
(4.13131 1.59328e-14 0)
(4.13131 -1.63395e-14 0)
(4.13131 -7.05689e-14 0)
(4.13131 -5.74199e-14 0)
(4.13131 -4.45877e-14 0)
(4.13131 -8.53547e-14 0)
(4.13131 -1.16743e-13 0)
(4.13131 -1.29332e-13 0)
(4.13131 -1.33556e-13 0)
(4.13131 -1.20731e-13 0)
(4.13131 -1.72633e-13 0)
(4.13131 -1.51103e-13 0)
(4.13131 -7.87369e-14 0)
(4.13131 4.37476e-14 0)
(4.13131 7.40194e-14 0)
(4.13131 9.49897e-14 0)
(4.13131 6.06938e-14 0)
(4.13131 -4.05303e-14 0)
(4.13131 -4.15938e-14 0)
(4.13131 -3.0952e-14 0)
(4.13131 2.09503e-14 0)
(4.13131 6.7385e-14 0)
(4.13131 4.02169e-14 0)
(4.13131 2.81215e-14 0)
(4.13131 6.05038e-14 0)
(4.13131 5.69798e-14 0)
(4.13131 6.14139e-14 0)
(4.13131 -2.1417e-14 0)
(4.13131 -1.00657e-13 0)
(4.13131 -7.91237e-14 0)
(4.13131 -1.00784e-14 0)
(4.13131 -2.89383e-15 0)
(4.13131 -2.93317e-14 0)
(4.13131 -9.2596e-14 0)
(4.13131 -1.01294e-13 0)
(4.13131 -1.15403e-13 0)
(4.13131 -1.06495e-13 0)
(4.13131 2.46709e-15 0)
(4.13131 1.37057e-14 0)
(4.13131 2.43309e-14 0)
(4.13131 -8.09473e-15 0)
(4.13131 -2.58211e-14 0)
(4.13131 -3.60062e-14 0)
(4.13131 -6.64781e-14 0)
(4.13131 -5.4016e-14 0)
(4.13131 -5.46528e-14 0)
(4.13131 -1.14286e-14 0)
(4.13131 -3.70164e-14 0)
(4.13131 -2.61312e-14 0)
(4.13131 -1.46025e-14 0)
(4.13131 -4.53345e-14 0)
(4.13131 -8.28743e-14 0)
(4.13131 -5.55029e-14 0)
(4.13131 8.46813e-16 0)
(4.13131 -1.01718e-14 0)
(4.13131 -3.94335e-14 0)
(4.13131 -7.20124e-14 0)
(4.13131 -6.95987e-14 0)
(4.13131 -7.11723e-14 0)
(4.13131 -6.09939e-14 0)
(4.13131 -1.80498e-14 0)
(4.13131 1.30923e-14 0)
(4.13131 1.77997e-14 0)
(4.13131 -4.65147e-14 0)
(4.13131 -6.34443e-14 0)
(4.13131 -3.20522e-14 0)
(4.13131 -6.46845e-14 0)
(4.13131 -1.27745e-13 0)
(4.13131 -9.92405e-14 0)
(4.13131 -1.07685e-13 0)
(4.13131 -7.32793e-14 0)
(4.13131 -4.05103e-14 0)
(4.13131 -4.04236e-14 0)
(4.13131 -8.94088e-14 0)
(4.13131 -1.16463e-13 0)
(4.13131 -1.44022e-13 0)
(4.13131 -1.65039e-13 0)
(4.13131 1.23288e-14 0)
(4.13131 -1.24321e-14 0)
(4.13131 -3.03019e-14 0)
(4.13131 -5.37459e-14 0)
(4.13131 -3.35025e-14 0)
(4.13131 -3.81633e-14 0)
(4.13131 -9.92071e-14 0)
(4.13131 -1.39817e-13 0)
(4.13131 -1.09392e-13 0)
(4.13131 -5.54329e-14 0)
(4.13131 -6.62714e-14 0)
(4.13131 -4.66814e-14 0)
(4.13131 -1.99534e-14 0)
(4.13131 -7.69133e-15 0)
(4.13131 -7.17791e-15 0)
(4.13131 2.55477e-14 0)
(4.13131 8.29477e-14 0)
(4.13131 6.30509e-14 0)
(4.13131 3.0992e-14 0)
(4.13131 -4.21739e-15 0)
(4.13131 1.83765e-14 0)
(4.13131 2.35741e-14 0)
(4.13131 1.34023e-15 0)
(4.13131 -1.3519e-14 0)
(4.13131 4.56746e-14 0)
(4.13131 9.20059e-14 0)
(4.13131 9.87937e-14 0)
(4.13131 4.67314e-14 0)
(4.13131 1.95734e-14 0)
(4.13131 3.63729e-15 0)
(4.13131 -4.06737e-14 0)
(4.13131 -7.57131e-14 0)
(4.13131 -1.86942e-13 0)
(4.13131 -2.18421e-13 0)
(4.13131 -5.23157e-14 0)
(4.13131 3.36091e-14 0)
(4.13131 1.47892e-14 0)
(4.13131 -3.81433e-14 0)
(4.13131 -6.72183e-14 0)
(4.13131 -7.38718e-14 0)
(4.13131 1.1822e-14 0)
(4.13131 -8.03472e-16 0)
(4.13131 -2.21772e-14 0)
(4.13131 -3.79132e-14 0)
(4.13131 -7.86803e-16 0)
(4.13131 2.82082e-14 0)
(4.13131 2.56378e-14 0)
(4.13131 -1.65562e-14 0)
(4.13131 -4.37442e-14 0)
(4.13131 -5.74132e-14 0)
(4.13131 -4.54545e-14 0)
(4.13131 -8.27109e-14 0)
(4.13131 -9.12491e-14 0)
(4.13131 -6.11272e-14 0)
(4.13131 1.35123e-14 0)
(4.13131 4.01203e-14 0)
(4.13131 1.01317e-14 0)
(4.13131 3.0912e-14 0)
(4.13131 2.85216e-14 0)
(4.13131 5.27658e-14 0)
(4.13131 3.48393e-14 0)
(4.13131 -4.54745e-15 0)
(4.13131 -1.73963e-14 0)
(4.13131 -5.65364e-14 0)
(4.13131 -1.24408e-13 0)
(4.13131 -6.04838e-14 0)
(4.13131 -5.79767e-15 0)
(4.13131 1.74597e-14 0)
(4.13131 7.25159e-14 0)
(4.13131 1.18007e-13 0)
(4.13131 1.11403e-13 0)
(4.13131 6.29975e-14 0)
(4.13131 -2.41375e-15 0)
(4.13131 -2.44175e-14 0)
(4.13131 -4.57312e-14 0)
(4.13131 7.22892e-14 0)
(4.13131 8.58182e-14 0)
(4.13131 9.51931e-14 0)
(4.13131 1.25058e-13 0)
(4.13131 5.45481e-14 0)
(4.13131 9.30161e-15 0)
(4.13131 5.19623e-14 0)
(4.13131 6.93286e-14 0)
(4.13131 7.64565e-14 0)
(4.13131 5.99337e-14 0)
(4.13131 7.11756e-14 0)
(4.13131 6.9522e-14 0)
(4.13131 5.3846e-14 0)
(4.13131 2.91284e-14 0)
(4.13131 5.04754e-15 0)
(4.13131 3.77399e-14 0)
(4.13131 5.68098e-15 0)
(4.13131 -2.66046e-14 0)
(4.13131 -1.62361e-15 0)
(4.13131 -1.06685e-14 0)
(4.13131 -2.6908e-14 0)
(4.13131 -3.6723e-14 0)
(4.13131 -5.15389e-14 0)
(4.13131 -3.82299e-14 0)
(4.13131 7.16524e-14 0)
(4.13131 5.50662e-14 0)
(4.13131 3.74231e-14 0)
(4.13131 4.38876e-14 0)
(4.13131 1.61795e-14 0)
(4.13131 -6.79484e-14 0)
(4.13131 -2.80615e-14 0)
(4.13131 -1.17387e-14 0)
(4.13131 1.42458e-14 0)
(4.13131 7.67566e-14 0)
(4.13131 1.11786e-13 0)
(4.13131 2.50923e-13 0)
(4.13131 2.1458e-13 0)
(4.13131 2.28263e-13 0)
(4.13131 1.70066e-13 0)
(4.13131 1.08625e-13 0)
(4.13131 1.27152e-13 0)
(4.13131 1.55023e-13 0)
(4.13131 2.10626e-13 0)
(4.13131 2.46876e-13 0)
(4.13131 2.11988e-13 0)
(4.13131 -8.63482e-16 0)
(4.13131 2.80082e-14 0)
(4.13131 1.82898e-14 0)
(4.13131 1.10952e-14 0)
(4.13131 1.63862e-14 0)
(4.13131 5.50828e-14 0)
(4.13131 1.21008e-13 0)
(4.13131 9.97672e-14 0)
(4.13131 3.03786e-14 0)
(4.13131 9.66834e-15 0)
(4.13131 5.10755e-14 0)
(4.13131 8.1024e-14 0)
(4.13131 7.59131e-14 0)
(4.13131 4.59913e-14 0)
(4.13131 5.56429e-15 0)
(4.13131 -6.32109e-15 0)
(4.13131 2.19638e-14 0)
(4.13131 -1.08385e-14 0)
(4.13131 3.12654e-14 0)
(4.13131 1.16303e-13 0)
(4.13131 1.00264e-13 0)
(4.13131 9.94238e-14 0)
(4.13131 1.31279e-13 0)
(4.13131 1.57457e-13 0)
(4.13131 1.77737e-13 0)
(4.13131 1.69293e-13 0)
(4.13131 2.01855e-13 0)
(4.13131 2.27899e-13 0)
(4.13131 1.48209e-13 0)
(4.13131 8.47713e-14 0)
(4.13131 1.20377e-13 0)
(4.13131 1.5236e-13 0)
(4.13131 1.49819e-13 0)
(4.13131 1.18884e-13 0)
(4.13131 5.33926e-14 0)
(4.13131 2.54577e-14 0)
(4.13131 4.54579e-14 0)
(4.13131 1.59621e-13 0)
(4.13131 1.71373e-13 0)
(4.13131 1.73636e-13 0)
(4.13131 -8.14474e-15 0)
(4.13131 -1.23355e-14 0)
(4.13131 -2.72647e-14 0)
(4.13131 -4.16439e-14 0)
(4.13131 -1.41891e-14 0)
(4.13131 -5.46761e-15 0)
(4.13131 1.93667e-14 0)
(4.13131 7.92437e-14 0)
(4.13131 9.36695e-14 0)
(4.13131 7.5003e-14 0)
(4.13131 1.18387e-14 0)
(4.13131 -3.63396e-15 0)
(4.13131 -4.56412e-15 0)
(4.13131 -5.04787e-14 0)
(4.13131 -6.68215e-14 0)
(4.13131 -5.9917e-14 0)
(4.13131 -4.25707e-14 0)
(4.13131 -2.97051e-15 0)
(4.13131 4.23473e-14 0)
(4.13131 5.12455e-14 0)
(4.13131 1.02274e-13 0)
(4.13131 7.81402e-14 0)
(4.13131 -8.00138e-16 0)
(4.13131 1.3759e-14 0)
(4.13131 2.54444e-14 0)
(4.13131 6.63781e-14 0)
(4.13131 5.74899e-14 0)
(4.13131 -2.51377e-14 0)
(4.13131 -3.41226e-14 0)
(4.13131 -3.02052e-14 0)
(4.13131 -5.92202e-14 0)
(4.13131 -1.06632e-13 0)
(4.13131 -1.27209e-13 0)
(4.13131 -1.17357e-13 0)
(4.13131 -8.64416e-14 0)
(4.13131 -6.29775e-14 0)
(4.13131 -3.2949e-14 0)
(4.13131 3.78465e-14 0)
(4.13131 9.661e-14 0)
(4.13131 9.35128e-14 0)
(4.13131 2.09036e-15 0)
(4.13131 -5.82667e-14 0)
(4.13131 -7.20391e-14 0)
(4.13131 -4.86884e-14 0)
(4.13131 1.50626e-14 0)
(4.13131 1.62128e-14 0)
(4.13131 1.24688e-14 0)
(4.13131 2.83716e-15 0)
(4.13131 -4.01736e-15 0)
(4.13131 7.85802e-15 0)
(4.13131 -6.54113e-15 0)
(4.13131 -1.31683e-13 0)
(4.13131 -1.35063e-13 0)
(4.13131 -6.33243e-14 0)
(4.13131 -2.83349e-14 0)
(4.13131 -5.00753e-14 0)
(4.13131 -4.2404e-14 0)
(4.13131 -1.19421e-14 0)
(4.13131 -3.49594e-14 0)
(4.13131 -8.91087e-14 0)
(4.13131 -7.57264e-14 0)
(4.13131 -2.86383e-14 0)
(4.13131 -5.65564e-14 0)
(4.13131 -1.03871e-13 0)
(4.13131 -2.57078e-14 0)
(4.13131 2.14237e-14 0)
(4.13131 1.09019e-15 0)
(4.13131 -6.53346e-14 0)
(4.13131 -1.06682e-13 0)
(4.13131 -8.59515e-14 0)
(4.13131 -1.02291e-13 0)
(4.13131 -1.51459e-13 0)
(4.13131 -1.5458e-13 0)
(4.13131 -1.61668e-13 0)
(4.13131 -1.46192e-13 0)
(4.13131 -1.81268e-13 0)
(4.13131 -1.5582e-13 0)
(4.13131 -1.67799e-13 0)
(4.13131 -6.72716e-14 0)
(4.13131 -2.39959e-14 0)
(4.13131 -2.01568e-14 0)
(4.13131 -2.90383e-14 0)
(4.13131 -2.06302e-14 0)
(4.13131 -1.60428e-14 0)
(4.13131 -4.87418e-15 0)
(4.13131 -3.844e-15 0)
(4.13131 -3.1062e-14 0)
(4.13131 -3.06853e-14 0)
(4.13131 -8.56148e-15 0)
(4.13131 -1.62695e-14 0)
(4.13131 -7.52797e-15 0)
(4.13131 -9.05756e-14 0)
(4.13131 -8.84519e-14 0)
(4.13131 -4.6458e-14 0)
(4.13131 -2.3364e-14 0)
(4.13131 -4.26907e-14 0)
(4.13131 -3.95435e-14 0)
(4.13131 -3.55395e-14 0)
(4.13131 -4.84884e-14 0)
(4.13131 -5.79e-14 0)
(4.13131 -4.33208e-14 0)
(4.13131 -3.94535e-14 0)
(4.13131 1.12019e-14 0)
(4.13131 1.22521e-14 0)
(4.13131 -9.58499e-15 0)
(4.13131 -8.21208e-14 0)
(4.13131 -7.36894e-14 0)
(4.13131 -9.34961e-14 0)
(4.13131 -8.41412e-14 0)
(4.13131 -3.6493e-14 0)
(4.13131 -6.88986e-14 0)
(4.13131 -4.99186e-14 0)
(4.13131 -6.62548e-14 0)
(4.13131 -1.03131e-13 0)
(4.13131 -1.77824e-13 0)
(4.13131 -2.08569e-13 0)
(4.13131 -2.40188e-13 0)
(4.13131 -2.41455e-13 0)
(4.13131 -2.96128e-13 0)
(4.13131 -2.18393e-13 0)
(4.13131 -3.98069e-15 0)
(4.13131 4.86551e-14 0)
(4.13131 7.9197e-14 0)
(4.13131 5.65398e-14 0)
(4.13131 -2.42609e-14 0)
(4.13131 -2.97951e-14 0)
(4.13131 -6.07105e-14 0)
(4.13131 -5.35192e-14 0)
(4.13131 -1.13153e-14 0)
(4.13131 -2.11036e-14 0)
(4.13131 -4.73415e-14 0)
(4.13131 3.07053e-14 0)
(4.13131 5.06521e-14 0)
(4.13131 2.00601e-14 0)
(4.13131 -4.45077e-14 0)
(4.13131 -9.76402e-14 0)
(4.13131 -1.21108e-13 0)
(4.13131 -1.5641e-13 0)
(4.13131 -1.66002e-13 0)
(4.13131 -1.25352e-13 0)
(4.13131 9.0749e-15 0)
(4.13131 1.35423e-14 0)
(4.13131 -3.54661e-14 0)
(4.13131 -8.43546e-14 0)
(4.13131 -1.68526e-13 0)
(4.13131 -1.18741e-13 0)
(4.13131 -7.1659e-14 0)
(4.13131 -4.4461e-14 0)
(4.13131 -7.1279e-15 0)
(4.13131 5.5843e-15 0)
(4.13131 1.5506e-14 0)
(4.13131 3.09087e-14 0)
(4.13131 -1.77531e-14 0)
(4.13131 -9.47397e-14 0)
(4.13131 -1.15503e-13 0)
(4.13131 -8.58682e-14 0)
(4.13131 -9.09757e-14 0)
(4.13131 -1.83758e-13 0)
(4.13131 -1.85079e-13 0)
(4.13131 -1.89725e-13 0)
(4.13131 1.22721e-14 0)
(4.13131 1.76631e-14 0)
(4.13131 3.36725e-16 0)
(4.13131 -5.2009e-16 0)
(4.13131 -2.09303e-14 0)
(4.13131 -3.73064e-15 0)
(4.13131 6.7345e-16 0)
(4.13131 -6.07105e-15 0)
(4.13131 -4.89618e-14 0)
(4.13131 -1.1825e-13 0)
(4.13131 -1.1599e-13 0)
(4.13131 -4.93752e-14 0)
(4.13131 3.49727e-14 0)
(4.13131 3.78699e-14 0)
(4.13131 -9.70168e-15 0)
(4.13131 -7.28126e-15 0)
(4.13131 -2.08169e-14 0)
(4.13131 -2.81415e-14 0)
(4.13131 -1.03631e-13 0)
(4.13131 -1.25755e-13 0)
(4.13131 -1.14987e-13 0)
(4.13131 -8.02505e-14 0)
(4.13131 -5.11655e-14 0)
(4.13131 -1.96657e-13 0)
(4.13131 -2.46983e-13 0)
(4.13131 -2.09263e-13 0)
(4.13131 -8.8522e-14 0)
(4.13131 5.45761e-15 0)
(4.13131 -1.13453e-14 0)
(4.13131 -6.25308e-14 0)
(4.13131 -6.82351e-14 0)
(4.13131 -5.04787e-14 0)
(4.13131 3.02319e-14 0)
(4.13131 9.25393e-14 0)
(4.13131 1.22608e-13 0)
(4.13131 -4.72548e-14 0)
(4.13131 -1.26765e-13 0)
(4.13131 -1.11876e-13 0)
(4.13131 -5.30025e-14 0)
(4.13131 -8.46668e-14 0)
(4.13131 -7.39794e-15 0)
(4.13131 -5.9837e-14 0)
(4.13131 -6.41277e-14 0)
(4.13131 -4.47111e-14 0)
(4.13131 -2.5181e-14 0)
(4.13131 -6.9612e-15 0)
(4.13131 2.30973e-14 0)
(4.13131 -1.88032e-15 0)
(4.13131 -2.98852e-14 0)
(4.13131 -3.93401e-15 0)
(4.13131 2.15437e-14 0)
(4.13131 -2.1147e-14 0)
(4.13131 -8.18241e-14 0)
(4.13131 -4.81983e-14 0)
(4.13131 -4.43877e-14 0)
(4.13131 1.91833e-14 0)
(4.13131 4.16239e-14 0)
(4.13131 -6.3911e-15 0)
(4.13131 -7.20158e-14 0)
(4.13131 -1.30196e-13 0)
(4.13131 -2.14347e-13 0)
(4.13131 -1.13566e-13 0)
(4.13131 -7.44562e-14 0)
(4.13131 -6.92586e-14 0)
(4.13131 -2.37091e-13 0)
(4.13131 -3.20472e-13 0)
(4.13131 -2.78131e-13 0)
(4.13131 -2.27453e-13 0)
(4.13131 -1.84235e-13 0)
(4.13131 -1.7473e-13 0)
(4.13131 -1.44102e-13 0)
(4.13131 -6.64148e-14 0)
(4.13131 1.64428e-14 0)
(4.13131 5.88435e-14 0)
(4.13131 5.06387e-14 0)
(4.13131 -8.24109e-14 0)
(4.13131 -1.1553e-13 0)
(4.13131 -4.87784e-14 0)
(4.13131 4.24573e-14 0)
(4.13131 9.85704e-14 0)
(4.13131 7.5413e-15 0)
(4.13131 -1.70996e-14 0)
(4.13131 4.59413e-15 0)
(4.13131 5.66865e-14 0)
(4.13131 7.63999e-14 0)
(4.13131 8.20008e-14 0)
(4.13131 9.2876e-14 0)
(4.13131 8.86786e-14 0)
(4.13131 7.27392e-14 0)
(4.13131 9.2716e-14 0)
(4.13131 1.44062e-13 0)
(4.13131 1.46429e-13 0)
(4.13131 7.09823e-14 0)
(4.13131 -3.46393e-15 0)
(4.13131 -1.77964e-14 0)
(4.13131 -6.44778e-15 0)
(4.13131 -8.21775e-14 0)
(4.13131 -7.81968e-14 0)
(4.13131 -4.66814e-14 0)
(4.13131 -7.81602e-14 0)
(4.13131 -1.42605e-13 0)
(4.13131 -1.64632e-13 0)
(4.13131 -1.45268e-13 0)
(4.13131 -1.51586e-13 0)
(4.13131 -1.55057e-13 0)
(4.13131 -1.13673e-13 0)
(4.13131 -1.14396e-13 0)
(4.13131 -7.9267e-14 0)
(4.13131 -8.86486e-15 0)
(4.13131 3.74465e-14 0)
(4.13131 -1.14887e-14 0)
(4.13131 -3.41226e-14 0)
(4.13131 -1.36224e-14 0)
(4.13131 3.878e-14 0)
(4.13131 -1.75964e-14 0)
(4.13131 -1.45025e-15 0)
(4.13131 -7.50796e-15 0)
(4.13131 -1.19654e-14 0)
(4.13131 -8.61815e-15 0)
(4.13131 7.33057e-15 0)
(4.13131 7.36461e-15 0)
(4.13131 2.29973e-14 0)
(4.13131 3.92534e-14 0)
(4.13131 4.97053e-14 0)
(4.13131 4.26374e-14 0)
(4.13131 3.49527e-14 0)
(4.13131 -4.71081e-15 0)
(4.13131 -3.86133e-14 0)
(4.13131 -5.98237e-14 0)
(4.13131 -5.91969e-14 0)
(4.13131 -4.19606e-14 0)
(4.13131 3.2539e-15 0)
(4.13131 3.77098e-14 0)
(4.13131 1.16323e-13 0)
(4.13131 2.91384e-14 0)
(4.13131 -9.25493e-15 0)
(4.13131 -3.51461e-14 0)
(4.13131 5.67098e-15 0)
(4.13131 5.48728e-14 0)
(4.13131 -1.7403e-15 0)
(4.13131 -9.38829e-14 0)
(4.13131 -2.57624e-13 0)
(4.13131 -3.4638e-13 0)
(4.13131 -3.24129e-13 0)
(4.13131 -2.48486e-13 0)
(4.13131 -8.73818e-14 0)
(4.13131 -3.39892e-14 0)
(4.13131 1.21554e-14 0)
(4.13131 1.09519e-13 0)
(4.13131 1.11496e-13 0)
(4.13131 1.23708e-13 0)
(4.13131 7.94404e-14 0)