/*--------------------------------*- C++ -*----------------------------------*\
| =========                 |                                                 |
| \\      /  F ield         | OpenFOAM: The Open Source CFD Toolbox           |
|  \\    /   O peration     | Version:  2206                                  |
|   \\  /    A nd           | Website:  www.openfoam.com                      |
|    \\/     M anipulation  |                                                 |
\*---------------------------------------------------------------------------*/
FoamFile
{
    version     2.0;
    format      ascii;
    arch        "LSB;label=32;scalar=64";
    class       volScalarField;
    location    "0.16";
    object      rho;
}
// * * * * * * * * * * * * * * * * * * * * * * * * * * * * * * * * * * * * * //

dimensions      [1 -3 0 0 0 0 0];

internalField   nonuniform List<scalar> 
4800
(
1.40001
1.40001
1.40001
1.40001
1.40001
1.40001
1.40001
1.40001
1.40001
1.40001
1.40001
1.40001
1.40001
1.40001
1.40001
1.40001
1.40001
1.40001
1.40001
1.40001
1.40001
1.40001
1.40001
1.40001
1.40001
1.40001
1.40001
1.40001
1.40001
1.40001
1.40001
1.40001
1.40001
1.40001
1.40001
1.40001
1.40001
1.40001
1.40001
1.40001
1.40001
1.40001
1.40001
1.40001
1.40001
1.40001
1.40001
1.40001
1.40001
1.40001
1.40001
1.40001
1.40001
1.40001
1.40001
1.40001
1.40001
1.40001
1.40001
1.40001
1.40001
1.40001
1.40001
1.40001
1.40001
1.40001
1.40001
1.40001
1.40001
1.40001
1.40001
1.40001
1.40001
1.40001
1.40001
1.40001
1.40001
1.40001
1.40001
1.40001
1.40001
1.40001
1.40001
1.40001
1.40001
1.40001
1.40001
1.40001
1.40001
1.40001
1.40001
1.40001
1.40001
1.40001
1.40001
1.40001
1.40001
1.40001
1.40001
1.40001
1.40001
1.40001
1.40001
1.40001
1.40001
1.40001
1.40001
1.40001
1.40001
1.40001
1.40001
1.40001
1.40001
1.40001
1.40001
1.40001
1.40001
1.40001
1.40001
1.40001
1.40001
1.40001
1.40001
1.40001
1.40001
1.40001
1.40001
1.40001
1.40001
1.40001
1.40001
1.40001
1.40001
1.40001
1.40001
1.40001
1.40001
1.40001
1.40001
1.40001
1.40001
1.40001
1.40001
1.40001
1.40001
1.40001
1.40001
1.40001
1.40001
1.40001
1.40001
1.40001
1.40001
1.40001
1.40001
1.40001
1.40001
1.40001
1.40001
1.40001
1.40001
1.40001
1.40001
1.40001
1.40001
1.40001
1.40001
1.40001
1.40001
1.40001
1.40001
1.40001
1.40001
1.40001
1.40001
1.40001
1.40001
1.40001
1.40001
1.40001
1.40001
1.40001
1.40001
1.40001
1.40001
1.40001
1.40001
1.40001
1.40001
1.40001
1.40001
1.40001
1.40001
1.40001
1.40001
1.40001
1.40001
1.40001
1.40001
1.40001
1.40001
1.40001
1.40001
1.40001
1.40001
1.40001
1.40001
1.40001
1.40001
1.40001
1.40001
1.40001
1.40001
1.40001
1.40001
1.40001
1.40001
1.40001
1.40001
1.40001
1.40001
1.40001
1.40001
1.40001
1.40001
1.40001
1.40001
1.40001
1.40001
1.40001
1.40001
1.40001
1.40001
1.40001
1.40001
1.40001
1.40001
1.40001
1.40001
1.40001
1.40001
1.40001
1.40001
1.40001
1.40001
1.40001
1.40001
1.40001
1.40001
1.40001
1.40001
1.40001
1.40001
1.40001
1.40001
1.40001
1.40001
1.40001
1.40001
1.40001
1.40001
1.40001
1.40001
1.40001
1.40001
1.40001
1.40001
1.40001
1.40001
1.40001
1.40001
1.40001
1.40001
1.40001
1.40001
1.40001
1.40001
1.40001
1.40001
1.40001
1.40001
1.40001
1.40001
1.40001
1.40001
1.40001
1.40001
1.40001
1.40001
1.40001
1.40001
1.40001
1.40001
1.40001
1.40001
1.40001
1.40001
1.40001
1.40001
1.40001
1.40001
1.40001
1.40001
1.40001
1.40001
1.40001
1.40001
1.40001
1.40001
1.40001
1.40001
1.40001
1.40001
1.40001
1.40001
1.40001
1.40001
1.40001
1.40001
1.40001
1.40001
1.40001
1.40001
1.40001
1.40001
1.40001
1.40001
1.40001
1.40001
1.40001
1.40001
1.40001
1.40001
1.40001
1.40001
1.40001
1.40001
1.40001
1.40001
1.40001
1.40001
1.40001
1.40001
1.40001
1.40001
1.40001
1.40001
1.40001
1.40001
1.40001
1.40001
1.40001
1.40001
1.40001
1.40001
1.40001
1.40001
1.40001
1.40001
1.40001
1.40001
1.40001
1.40001
1.40001
1.40001
1.40001
1.40001
1.40001
1.40001
1.40001
1.40001
1.40001
1.40001
1.40001
1.40001
1.40001
1.40001
1.40001
1.40001
1.40001
1.40001
1.40001
1.40001
1.40001
1.40001
1.40001
1.40001
1.40001
1.40001
1.40001
1.40001
1.40001
1.40001
1.40001
1.40001
1.40001
1.40001
1.40001
1.40001
1.40001
1.40001
1.40001
1.40001
1.40001
1.40001
1.40001
1.40001
1.40001
1.40001
1.40001
1.40001
1.40001
1.40001
1.40001
1.40001
1.40001
1.40001
1.40001
1.40001
1.40001
1.40001
1.40001
1.40001
1.40001
1.40001
1.40001
1.40001
1.40001
1.40001
1.40001
1.40001
1.40001
1.40001
1.40001
1.40001
1.40001
1.40001
1.40001
1.40001
1.40001
1.40001
1.40001
1.40001
1.40001
1.40001
1.40001
1.40001
1.40001
1.40001
1.40001
1.40001
1.40001
1.40001
1.40001
1.40001
1.40001
1.40001
1.40001
1.40001
1.40001
1.40001
1.40001
1.40001
1.40001
1.40001
1.40001
1.40001
1.40001
1.40001
1.40001
1.40001
1.40001
1.40001
1.40001
1.40001
1.40001
1.40001
1.40001
1.40001
1.40001
1.40001
1.40001
1.40001
1.40001
1.40001
1.40001
1.40001
1.40001
1.40001
1.40001
1.40001
1.40001
1.40001
1.40001
1.40001
1.40001
1.40001
1.40001
1.40001
1.40001
1.40001
1.40001
1.40001
1.40001
1.40001
1.40001
1.40001
1.40001
1.40001
1.40001
1.40001
1.40001
1.40001
1.40001
1.40001
1.40001
1.40001
1.40001
1.40001
1.40001
1.40001
1.40001
1.40001
1.40001
1.40001
1.40001
1.40001
1.40001
1.40001
1.40001
1.40001
1.40001
1.40001
1.40001
1.40001
1.40001
1.40001
1.40001
1.40001
1.40001
1.40001
1.40001
1.40001
1.40001
1.40001
1.40001
1.40001
1.40001
1.40001
1.40001
1.40001
1.40001
1.40001
1.40001
1.40001
1.40001
1.40001
1.40001
1.40001
1.40001
1.40001
1.40001
1.40001
1.40001
1.40001
1.40001
1.40001
1.40001
1.40001
1.40001
1.40001
1.40001
1.40001
1.40001
1.40001
1.40001
1.40001
1.40001
1.40001
1.40001
1.40001
1.40001
1.40001
1.40001
1.40001
1.40001
1.40001
1.40001
1.40001
1.40001
1.40001
1.40001
1.40001
1.40001
1.40001
1.40001
1.40001
1.40001
1.40001
1.40001
1.40001
1.40001
1.40001
1.40001
1.40001
1.40001
1.40001
1.40001
1.40001
1.40001
1.40001
1.40001
1.40001
1.40001
1.40001
1.40001
1.40001
1.40001
1.40001
1.40001
1.40001
1.40001
1.40001
1.40001
1.40001
1.40001
1.40001
1.40001
1.40001
1.40001
1.40001
1.40001
1.40001
1.40001
1.40001
1.40001
1.40001
1.40001
1.40001
1.40001
1.40001
1.40001
1.40001
1.40001
1.40001
1.40001
1.40001
1.40001
1.40001
1.40001
1.40001
1.40001
1.40001
1.40001
1.40001
1.40001
1.40001
1.40001
1.40001
1.40001
1.40001
1.40001
1.40001
1.40001
1.40001
1.40001
1.40001
1.40001
1.40001
1.40001
1.40001
1.40001
1.40001
1.40001
1.40001
1.40001
1.40001
1.40001
1.40001
1.40001
1.40001
1.40001
1.40001
1.40001
1.40001
1.40001
1.40001
1.40001
1.40001
1.40001
1.40001
1.40001
1.40001
1.40001
1.40001
1.40001
1.40001
1.40001
1.40001
1.40001
1.40001
1.40001
1.40001
1.40001
1.40001
1.40001
1.40001
1.40001
1.40001
1.40001
1.40001
1.40001
1.40001
1.40001
1.40001
1.40001
1.40001
1.40001
1.40001
1.40001
1.40001
1.40001
1.40001
1.40001
1.40001
1.40001
1.40001
1.40001
1.40001
1.40001
1.40001
1.40001
1.40001
1.40001
1.40001
1.40001
1.40001
1.40001
1.40001
1.40001
1.40001
1.40001
1.40001
1.40001
1.40001
1.40001
1.40001
1.40001
1.40001
1.40001
1.40001
1.40001
1.40001
1.40001
1.40001
1.40001
1.40001
1.40001
1.40001
1.40001
1.40001
1.40001
1.40001
1.40001
1.40001
1.40001
1.40001
1.40001
1.40001
1.40001
1.40001
1.40001
1.40001
1.40001
1.40001
1.40001
1.40001
1.40001
1.40001
1.40001
1.40001
1.40001
1.40001
1.40001
1.40001
1.40001
1.40001
1.40001
1.40001
1.40001
1.40001
1.40001
1.40001
1.40001
1.40001
1.40001
1.40001
1.40001
1.40001
1.40001
1.40001
1.40001
1.40001
1.40001
1.40001
1.40001
1.40001
1.40001
1.40001
1.40001
1.40001
1.40001
1.40001
1.40001
1.40001
1.40001
1.40001
1.40001
1.40001
1.40001
1.40001
1.40001
1.40001
1.40001
1.40001
1.40001
1.40001
1.40001
1.40001
1.40001
1.40001
1.40001
1.40001
1.40001
1.40001
1.40001
1.40001
1.40001
1.40001
1.40001
1.40001
1.40001
1.40001
1.40001
1.40001
1.40001
1.40001
1.40001
1.40001
1.40001
1.40001
1.40001
1.40001
1.40001
1.40001
1.40001
1.40001
1.40001
1.40001
1.40001
1.40001
1.40001
1.40001
1.40001
1.40001
1.40001
1.40001
1.40001
1.40001
1.40001
1.40001
1.40001
1.40001
1.40001
1.40001
1.40001
1.40001
1.40001
1.40001
1.40001
1.40001
1.40001
1.40001
1.40001
1.40001
1.40001
1.40001
1.40001
1.40001
1.40001
1.40001
1.40001
1.40001
1.40001
1.40001
1.40001
1.40001
1.40001
1.40001
1.40001
1.40001
1.40001
1.40001
1.40001
1.40001
1.40001
1.40001
1.40001
1.40001
1.40001
1.40001
1.40001
1.40001
1.40001
1.40001
1.40001
1.40001
1.40001
1.40001
1.40001
1.40001
1.40001
1.40001
1.40001
1.40001
1.40001
1.40001
1.40001
1.40001
1.40001
1.40001
1.40001
1.40001
1.40001
1.40001
1.40001
1.40001
1.40001
1.40001
1.40001
1.40001
1.40001
1.40001
1.40001
1.40001
1.40001
1.40001
1.40001
1.40001
1.40001
1.40001
1.40001
1.40001
1.40001
1.40001
1.40001
1.40001
1.40001
1.40001
1.40001
1.40001
1.40001
1.40001
1.40001
1.40001
1.40001
1.40001
1.40001
1.40001
1.40001
1.40001
1.40001
1.40001
1.40001
1.40001
1.40001
1.40001
1.40001
1.40001
1.40001
1.40001
1.40001
1.40001
1.40001
1.40001
1.40001
1.40001
1.40001
1.40001
1.40001
1.40001
1.40001
1.40001
1.40001
1.40001
1.40001
1.40001
1.40001
1.40001
1.40001
1.40001
1.40001
1.40001
1.40001
1.40001
1.40001
1.40001
1.40001
1.40001
1.40001
1.40001
1.40001
1.40001
1.40001
1.40001
1.40001
1.40001
1.40001
1.40001
1.40001
1.40001
1.40001
1.40001
1.40001
1.40001
1.40001
1.40001
1.40001
1.40001
1.40001
1.40001
1.40001
1.40001
1.40001
1.40001
1.40001
1.40001
1.40001
1.40001
1.40001
1.40001
1.40001
1.40001
1.40001
1.40001
1.40001
1.40001
1.40001
1.40001
1.40001
1.40001
1.40001
1.40001
1.40001
1.40001
1.40001
1.40001
1.40001
1.40001
1.40001
1.40001
1.40001
1.40001
1.40001
1.40001
1.40001
1.40001
1.40001
1.40001
1.40001
1.40001
1.40001
1.40001
1.40001
1.40001
1.40001
1.40001
1.40001
1.40001
1.40001
1.40001
1.40001
1.40001
1.40001
1.40001
1.40001
1.40001
1.40001
1.40001
1.40001
1.40001
1.40001
1.40001
1.40001
1.40001
1.40001
1.40001
1.40001
1.40001
1.40001
1.40001
1.40001
1.40001
1.40001
1.40001
1.40001
1.40001
1.40001
1.40001
1.40001
1.40001
1.40001
1.40001
1.40001
1.40001
1.40001
1.40001
1.40001
1.40001
1.40001
1.40001
1.40001
1.40001
1.40001
1.40001
1.40001
1.40001
1.40001
1.40001
1.40001
1.40001
1.40001
1.40001
1.40001
1.40001
1.40001
1.40001
1.40001
1.40001
1.40001
1.40001
1.40001
1.40001
1.40001
1.40001
1.40001
1.40001
1.40001
1.40001
1.40001
1.40001
1.40001
1.40001
1.40001
1.40001
1.40001
1.40001
1.40001
1.40001
1.40001
1.40001
1.40001
1.40001
1.40001
1.40001
1.40001
1.40001
1.40001
1.40001
1.40001
1.40001
1.40001
1.40001
1.40001
1.40001
1.40001
1.40001
1.40001
1.40001
1.40001
1.40001
1.40001
1.40001
1.40001
1.40001
1.40001
1.40001
1.40001
1.40001
1.40001
1.40001
1.40001
1.40001
1.40001
1.40001
1.40001
1.40001
1.40001
1.40001
1.40001
1.40001
1.40001
1.40001
1.40001
1.40001
1.40001
1.40001
1.40001
1.40001
1.40001
1.40001
1.40001
1.40001
1.40001
1.40001
1.40001
1.40001
1.40001
1.40001
1.40001
1.40001
1.40001
1.40001
1.40001
1.40001
1.40001
1.40001
1.40001
1.40001
1.40001
1.40001
1.40001
1.40001
1.40001
1.40001
1.40001
1.40001
1.40001
1.40001
1.40001
1.40001
1.40001
1.40001
1.40001
1.40001
1.40001
1.40001
1.40001
1.40001
1.40001
1.40001
1.40001
1.40001
1.40001
1.40001
1.40001
1.40001
1.40001
1.40001
1.40001
1.40001
1.40001
1.40001
1.40001
1.40001
1.40001
1.40001
1.40001
1.40001
1.40001
1.40001
1.40001
1.40001
1.40001
1.40001
1.40001
1.40001
1.40001
1.40001
1.40001
1.40001
1.40001
1.40001
1.40001
1.40001
1.40001
1.40001
1.40001
1.40001
1.40001
1.40001
1.40001
1.40001
1.40001
1.40001
1.40001
1.40001
1.40001
1.40001
1.40001
1.40001
1.40001
1.40001
1.40001
1.40001
1.40001
1.40001
1.40001
1.40001
1.40001
1.40001
1.40001
1.40001
1.40001
1.40001
1.40001
1.40001
1.40001
1.40001
1.40001
1.40001
1.40001
1.40001
1.40001
1.40001
1.40001
1.40001
1.40001
1.40001
1.40001
1.40001
1.40001
1.40001
1.40001
1.40001
1.40001
1.40001
1.40001
1.40001
1.40001
1.40001
1.40001
1.40001
1.40001
1.40001
1.40001
1.40001
1.40001
1.40001
1.40001
1.40001
1.40001
1.40001
1.40001
1.40001
1.40001
1.40001
1.40001
1.40001
1.40001
1.40001
1.40001
1.40001
1.40001
1.40001
1.40001
1.40001
1.40001
1.40001
1.40001
1.40001
1.40001
1.40001
1.40001
1.40001
1.40001
1.40001
1.40001
1.40001
1.40001
1.40001
1.40001
1.40001
1.40001
1.40001
1.40001
1.40001
1.40001
1.40001
1.40001
1.40001
1.40001
1.40001
1.40001
1.40001
1.40001
1.40001
1.40001
1.40001
1.40001
1.40001
1.40001
1.40001
1.40001
1.40001
1.40001
1.40001
1.40001
1.40001
1.40001
1.40001
1.40001
1.40001
1.40001
1.40001
1.40001
1.40001
1.40001
1.40001
1.40001
1.40001
1.40001
1.40001
1.40001
1.40001
1.40001
1.40001
1.40001
1.40001
1.40001
1.40001
1.40001
1.40001
1.40001
1.40001
1.40001
1.40001
1.40001
1.40001
1.40001
1.40001
1.40001
1.40001
1.40001
1.40001
1.40001
1.40001
1.40001
1.40001
1.40001
1.40001
1.40001
1.40001
1.40001
1.40001
1.40001
1.40001
1.40001
1.40001
1.40001
1.40001
1.40001
1.40001
1.40001
1.40001
1.40001
1.40001
1.40001
1.40001
1.40001
1.40001
1.40001
1.40001
1.40001
1.40001
1.40001
1.40001
1.40001
1.40001
1.40001
1.40001
1.40001
1.40001
1.40001
1.40001
1.40001
1.40001
1.40001
1.40001
1.40001
1.40001
1.40001
1.40001
1.40001
1.40001
1.40001
1.40001
1.40001
1.40001
1.40001
1.40001
1.40001
1.40001
1.40001
1.40001
1.40001
1.40001
1.40001
1.40001
1.40001
1.40001
1.40001
1.40001
1.40001
1.40001
1.40001
1.40001
1.40001
1.40001
1.40001
1.40001
1.40001
1.40001
1.40001
1.40001
1.40001
1.40001
1.40001
1.40001
1.40001
1.40001
1.40001
1.40001
1.40001
1.40001
1.40001
1.40001
1.40001
1.40001
1.40001
1.40001
1.40001
1.40001
1.40001
1.40001
1.40001
1.40001
1.40001
1.40001
1.40001
1.40001
1.40001
1.40001
1.40001
1.40001
1.40001
1.40001
1.40001
1.40001
1.40001
1.40001
1.40001
1.40001
1.40001
1.40001
1.40001
1.40001
1.40001
1.40001
1.40001
1.40001
1.40001
1.40001
1.40001
1.40001
1.40001
1.40001
1.40001
1.40001
1.40001
1.40001
1.40001
1.40001
1.40001
1.40001
1.40001
1.40001
1.40001
1.40001
1.40001
1.40001
1.40001
1.40001
1.40001
1.40001
1.40001
1.40001
1.40001
1.40001
1.40001
1.66217
2.02315
2.43968
2.80547
3.09548
3.40853
3.60717
3.75295
3.78152
3.71431
3.56494
3.38837
3.18398
3.06963
3.04233
3.00673
2.98076
2.9883
3.00755
3.03089
3.05397
3.06255
3.06451
3.0641
3.06577
3.0699
3.07799
3.08057
3.0795
3.07682
3.07179
3.06574
3.06333
3.06411
3.06566
3.06743
3.06913
3.07105
3.0746
3.07871
3.08091
3.08198
3.08224
3.08145
3.07961
3.07673
3.07463
3.07451
3.07483
3.07533
3.0755
3.07532
3.07512
3.07495
3.07463
3.07412
3.0739
3.07374
3.07356
3.07358
3.07381
3.07397
3.07401
3.07392
3.07337
3.07234
3.07143
3.07121
3.07129
3.07157
3.07192
3.0721
3.07191
3.07132
3.07023
3.0686
3.06579
3.06126
3.05656
3.04493
1.40496
1.43216
1.47949
1.60616
1.78671
2.02185
2.31818
2.60742
2.89777
3.04792
3.14434
3.23756
3.23332
3.18396
3.15481
3.13813
3.09338
3.06265
3.04296
3.0308
3.02978
3.03311
3.04107
3.05046
3.05727
3.0675
3.07156
3.07184
3.07168
3.07075
3.0682
3.0669
3.06785
3.06953
3.06983
3.06903
3.06772
3.06774
3.06924
3.07122
3.07157
3.07154
3.07138
3.07132
3.07083
3.07012
3.07006
3.07044
3.07136
3.07259
3.07324
3.07334
3.0733
3.07318
3.07285
3.0724
3.07236
3.07238
3.07239
3.07259
3.0732
3.07351
3.07357
3.07355
3.0733
3.07276
3.07226
3.07222
3.07236
3.07271
3.07293
3.07287
3.07258
3.07186
3.07061
3.06869
3.06557
3.06101
3.05621
3.04392
1.40001
1.40003
1.40018
1.40167
1.40817
1.43114
1.49902
1.65012
1.92604
2.34916
2.81426
3.08987
3.25863
3.29775
3.28024
3.25341
3.20149
3.10112
3.02073
3.0081
3.00626
3.01057
3.0218
3.03181
3.038
3.04551
3.04865
3.05153
3.05492
3.05839
3.06061
3.06331
3.06694
3.06804
3.06808
3.06664
3.06344
3.06216
3.06213
3.06141
3.06102
3.06081
3.06036
3.06027
3.06064
3.0608
3.06109
3.06175
3.06303
3.06452
3.06548
3.06589
3.06605
3.06605
3.06591
3.06586
3.06619
3.06675
3.06732
3.06796
3.06889
3.0697
3.07003
3.0702
3.07034
3.07027
3.07005
3.07011
3.07043
3.07091
3.07124
3.07123
3.07097
3.07029
3.06904
3.06705
3.06391
3.05942
3.05463
3.04216
1.40001
1.40001
1.4
1.4
1.40001
1.40002
1.40031
1.40252
1.415
1.49198
1.691
2.10499
2.52636
2.96426
3.0758
3.12884
3.13646
3.13178
3.10329
3.08014
3.05684
3.0351
3.02761
3.00692
2.99752
3.00059
3.00828
3.01931
3.02825
3.03711
3.04473
3.05115
3.05646
3.05796
3.05807
3.0569
3.05394
3.05243
3.05205
3.05231
3.05265
3.05288
3.05239
3.05108
3.05148
3.05213
3.05269
3.05375
3.05538
3.05677
3.05719
3.05742
3.05749
3.05736
3.0569
3.05645
3.05671
3.05731
3.05803
3.05891
3.05989
3.06096
3.06172
3.06208
3.06242
3.06282
3.06326
3.06374
3.06444
3.06536
3.06599
3.06609
3.06598
3.06543
3.06432
3.06244
3.05936
3.05497
3.05053
3.03839
1.40001
1.40001
1.40001
1.4
1.4
1.40001
1.4
1.40001
1.4
1.40026
1.40349
1.44316
1.57915
1.89017
2.3567
2.73151
3.05842
3.12804
3.15912
3.15039
3.12957
3.0899
3.04126
3.00018
2.98628
2.98756
2.99384
3.0007
3.00748
3.01099
3.01612
3.02282
3.02942
3.03445
3.03722
3.03827
3.03899
3.0397
3.04086
3.04348
3.0452
3.04542
3.04504
3.04367
3.04366
3.0447
3.04601
3.04771
3.04964
3.05021
3.0503
3.05032
3.05031
3.05007
3.04961
3.04897
3.04883
3.04925
3.04987
3.05068
3.05152
3.0525
3.05318
3.05356
3.0538
3.05405
3.05444
3.05506
3.05585
3.05698
3.05766
3.05777
3.05767
3.05717
3.05618
3.05444
3.05159
3.04751
3.04318
3.03124
1.40001
1.40001
1.40001
1.40001
1.40001
1.40001
1.40001
1.4
1.4
1.4
1.4
1.40005
1.40138
1.41396
1.51954
1.74391
2.15742
2.56404
2.88475
3.06469
3.06434
3.07074
3.07922
3.05921
3.0314
3.0252
3.01913
3.01156
3.00539
3.00024
3.00189
3.00849
3.01315
3.01681
3.01984
3.02181
3.02397
3.02616
3.02883
3.03242
3.03532
3.03577
3.03568
3.03505
3.03507
3.03613
3.03803
3.0409
3.04298
3.04361
3.04388
3.04389
3.04383
3.04377
3.04359
3.04309
3.04256
3.04259
3.04304
3.04393
3.04505
3.04608
3.04652
3.0467
3.04665
3.04651
3.04676
3.04732
3.04814
3.04915
3.04955
3.04959
3.04934
3.04871
3.04778
3.04609
3.04334
3.03947
3.0352
3.02328
1.40001
1.40001
1.40001
1.40001
1.40001
1.40001
1.40001
1.40001
1.40001
1.40001
1.4
1.4
1.40001
1.4
1.40067
1.40698
1.45379
1.65381
1.98039
2.42594
2.73954
2.99622
3.08909
3.09624
3.08936
3.07285
3.04925
3.03243
3.02002
3.01196
3.01176
3.01098
3.00976
3.0092
3.01097
3.0161
3.0209
3.0241
3.02607
3.02759
3.02923
3.02874
3.02831
3.02803
3.02834
3.02894
3.02998
3.03218
3.03448
3.03609
3.03709
3.0373
3.03742
3.0376
3.0374
3.03689
3.03659
3.03684
3.03778
3.03907
3.04043
3.04171
3.04191
3.04185
3.04151
3.04132
3.04148
3.04191
3.04275
3.04378
3.04394
3.04382
3.04338
3.04255
3.04152
3.03975
3.0369
3.03284
3.02828
3.01586
1.40001
1.40001
1.40001
1.40001
1.40001
1.40001
1.40001
1.40001
1.40001
1.40001
1.40001
1.40001
1.40001
1.4
1.40001
1.4
1.40015
1.40402
1.42707
1.55956
1.86217
2.28502
2.64187
2.8606
3.00751
3.04768
3.05606
3.05586
3.05279
3.04451
3.04015
3.03772
3.03446
3.03032
3.02586
3.02456
3.02771
3.03368
3.03649
3.03627
3.03485
3.03139
3.02865
3.02736
3.02661
3.02626
3.02624
3.02714
3.029
3.03132
3.03296
3.03343
3.03382
3.03427
3.03458
3.03462
3.03485
3.03573
3.03719
3.03862
3.03987
3.04054
3.04047
3.04014
3.03959
3.03926
3.03928
3.03952
3.04002
3.0407
3.04104
3.04092
3.04036
3.03931
3.03792
3.03574
3.03255
3.02812
3.02323
3.01018
1.40001
1.40001
1.40001
1.40001
1.40001
1.40001
1.40001
1.40001
1.40001
1.40001
1.40001
1.40001
1.40001
1.40001
1.40001
1.4
1.4
1.4
1.40003
1.40169
1.41881
1.49318
1.76222
2.15157
2.606
2.79787
2.95081
3.03008
3.04706
3.04775
3.04277
3.04731
3.04576
3.03866
3.03355
3.03293
3.03561
3.04232
3.04827
3.05084
3.05016
3.04613
3.04088
3.03796
3.0369
3.03572
3.03421
3.03334
3.03279
3.03381
3.03517
3.03536
3.03519
3.035
3.035
3.03491
3.0349
3.03543
3.03665
3.03813
3.03928
3.03939
3.03902
3.03852
3.03799
3.03761
3.03763
3.03784
3.03827
3.0389
3.03958
3.03948
3.0389
3.03801
3.03657
3.034
3.03041
3.02562
3.02041
3.0066
1.40001
1.40001
1.40001
1.40001
1.40001
1.40001
1.40001
1.40001
1.40001
1.40001
1.40001
1.40001
1.40001
1.40001
1.40001
1.40001
1.40001
1.4
1.4
1.4
1.40002
1.4006
1.41237
1.4672
1.66789
2.0544
2.48092
2.80362
2.91341
2.97743
2.98377
3.00192
3.02115
3.02512
3.02913
3.02887
3.02832
3.03219
3.04076
3.04853
3.04983
3.04922
3.04746
3.04604
3.04614
3.04612
3.0457
3.045
3.04464
3.04389
3.04305
3.04271
3.04197
3.04035
3.03915
3.03814
3.03725
3.03726
3.03781
3.03871
3.03903
3.0386
3.03771
3.03673
3.03585
3.03555
3.03559
3.03596
3.03685
3.03817
3.03924
3.0391
3.03852
3.0377
3.03625
3.03355
3.02969
3.02445
3.01886
3.00448
1.40001
1.40001
1.40001
1.40001
1.40001
1.40001
1.40001
1.40001
1.40001
1.40001
1.40001
1.40001
1.40001
1.40001
1.40001
1.40001
1.40001
1.40001
1.40001
1.4
1.4
1.4
1.40001
1.40036
1.40605
1.45553
1.59328
1.94599
2.3803
2.8123
2.94614
2.98602
3.0305
3.01836
3.01998
3.01932
3.01559
3.01672
3.02248
3.03043
3.03704
3.03959
3.03981
3.04208
3.04615
3.04857
3.04911
3.0493
3.04959
3.04942
3.0487
3.04859
3.04841
3.04727
3.04631
3.04537
3.04368
3.04299
3.04277
3.04275
3.04254
3.04169
3.04015
3.03823
3.03677
3.03633
3.03632
3.0367
3.03764
3.03893
3.03981
3.03953
3.03877
3.03767
3.03594
3.03298
3.0288
3.02319
3.01732
3.00267
1.40001
1.40001
1.40001
1.40001
1.40001
1.40001
1.40001
1.40001
1.40001
1.40001
1.40001
1.40001
1.40001
1.40001
1.40001
1.40001
1.40001
1.40001
1.40001
1.40001
1.40001
1.4
1.4
1.40001
1.4
1.40027
1.40313
1.44
1.57372
1.90313
2.3292
2.71723
2.96501
3.01725
3.04702
3.04654
3.03146
3.03316
3.03214
3.02999
3.03252
3.03474
3.03517
3.03787
3.0403
3.04233
3.04518
3.04764
3.04908
3.05004
3.0503
3.05062
3.05024
3.04955
3.04931
3.04885
3.0477
3.04718
3.04706
3.04722
3.04717
3.04644
3.04519
3.04333
3.04092
3.03949
3.03917
3.03919
3.0397
3.04078
3.04138
3.04086
3.03977
3.03842
3.0363
3.03302
3.02844
3.02268
3.01654
3.00129
1.40001
1.40001
1.40001
1.40001
1.40001
1.40001
1.40001
1.40001
1.40001
1.40001
1.40001
1.40001
1.40001
1.40001
1.40001
1.40001
1.40001
1.40001
1.40001
1.40001
1.40001
1.40001
1.40001
1.40001
1.4
1.40001
1.4
1.4002
1.40294
1.42963
1.56851
1.84761
2.28198
2.67685
2.94977
3.01523
3.04705
3.07402
3.07667
3.06722
3.05778
3.05181
3.05006
3.04854
3.04684
3.04663
3.04821
3.05103
3.0517
3.05145
3.05065
3.04985
3.04945
3.04993
3.0502
3.04984
3.04921
3.04919
3.04943
3.05003
3.05039
3.05009
3.04934
3.0481
3.04601
3.04422
3.04387
3.04387
3.04417
3.045
3.04503
3.04397
3.0424
3.04049
3.03783
3.0341
3.02931
3.02291
3.0163
3.00074
1.40001
1.40001
1.40001
1.40001
1.40001
1.40001
1.40001
1.40001
1.40001
1.40001
1.40001
1.40001
1.40001
1.40001
1.40001
1.40001
1.40001
1.40001
1.40001
1.40001
1.40001
1.40001
1.40001
1.40001
1.40001
1.40001
1.4
1.4
1.4
1.40012
1.40298
1.42264
1.55395
1.84701
2.2812
2.63323
2.90836
3.02224
3.06361
3.07999
3.07823
3.07175
3.07184
3.07156
3.06846
3.06728
3.06809
3.06817
3.06527
3.06156
3.05932
3.05717
3.05523
3.05436
3.0537
3.05243
3.05188
3.05211
3.05284
3.0534
3.0534
3.05305
3.05249
3.05164
3.04988
3.0483
3.04806
3.04808
3.04842
3.04919
3.04895
3.04779
3.04603
3.04372
3.04055
3.03658
3.03146
3.02506
3.01836
3.00231
1.40001
1.40001
1.40001
1.40001
1.40001
1.40001
1.40001
1.40001
1.40001
1.40001
1.40001
1.40001
1.40001
1.40001
1.40001
1.40001
1.40001
1.40001
1.40001
1.40001
1.40001
1.40001
1.40001
1.40001
1.40001
1.40001
1.40001
1.40001
1.4
1.4
1.4
1.40008
1.40298
1.42315
1.54726
1.87868
2.3375
2.65538
2.87965
3.00554
3.04852
3.05441
3.06208
3.07063
3.07138
3.07234
3.0748
3.07523
3.07294
3.07049
3.06898
3.06764
3.06592
3.06441
3.06294
3.06089
3.06023
3.0604
3.06071
3.06039
3.05957
3.05859
3.05766
3.05638
3.05433
3.05297
3.05275
3.05278
3.05298
3.05301
3.05252
3.05132
3.04959
3.04718
3.04384
3.03986
3.03464
3.02807
3.02126
3.00482
1.40001
1.40001
1.40001
1.40001
1.40001
1.40001
1.40001
1.40001
1.40001
1.40001
1.40001
1.40001
1.40001
1.40001
1.40001
1.40001
1.40001
1.40001
1.40001
1.40001
1.40001
1.40001
1.40001
1.40001
1.40001
1.40001
1.40001
1.40001
1.40001
1.40001
1.4
1.4
1.4
1.40009
1.40325
1.43167
1.55478
1.90109
2.38322
2.75545
2.89866
2.97281
3.00396
3.03501
3.03876
3.0444
3.05398
3.05856
3.06064
3.06259
3.0649
3.06736
3.06802
3.06779
3.0667
3.06465
3.06468
3.06555
3.06623
3.06598
3.06537
3.06478
3.06391
3.06202
3.05949
3.05816
3.05788
3.05786
3.05782
3.05735
3.05629
3.05491
3.05327
3.05094
3.04763
3.04374
3.03844
3.03181
3.02489
3.00807
1.40001
1.40001
1.40001
1.40001
1.40001
1.40001
1.40001
1.40001
1.40001
1.40001
1.40001
1.40001
1.40001
1.40001
1.40001
1.40001
1.40001
1.40001
1.40001
1.40001
1.40001
1.40001
1.40001
1.40001
1.40001
1.40001
1.40001
1.40001
1.40001
1.40001
1.40001
1.40001
1.4
1.4
1.40001
1.40017
1.40339
1.44095
1.58262
1.95895
2.43934
2.85675
2.96392
3.0129
3.02421
3.03676
3.04741
3.04671
3.04582
3.04738
3.05136
3.05635
3.05889
3.05957
3.06126
3.0642
3.06507
3.06559
3.06618
3.06647
3.06677
3.06694
3.06679
3.06512
3.06267
3.06164
3.06154
3.0616
3.06155
3.06095
3.05967
3.05825
3.05679
3.05464
3.05156
3.04797
3.04279
3.03604
3.02896
3.01186
1.40001
1.40001
1.40001
1.40001
1.40001
1.40001
1.40001
1.40001
1.40001
1.40001
1.40001
1.40001
1.40001
1.40001
1.40001
1.40001
1.40001
1.40001
1.40001
1.40001
1.40001
1.40001
1.40001
1.40001
1.40001
1.40001
1.40001
1.40001
1.40001
1.40001
1.40001
1.40001
1.40001
1.4
1.4
1.4
1.40001
1.40032
1.40474
1.45709
1.641
2.06185
2.54142
2.87991
3.03122
3.0629
3.07984
3.07288
3.06345
3.06038
3.06027
3.05998
3.05841
3.05823
3.06024
3.06183
3.06261
3.06348
3.06461
3.06499
3.0654
3.0663
3.06646
3.06557
3.06392
3.06357
3.06364
3.06374
3.06377
3.06338
3.06205
3.06046
3.0592
3.05742
3.05479
3.05157
3.04656
3.03977
3.03261
3.01545
1.40001
1.40001
1.40001
1.40001
1.40001
1.40001
1.40001
1.40001
1.40001
1.40001
1.40001
1.40001
1.40001
1.40001
1.40001
1.40001
1.40001
1.40001
1.40001
1.40001
1.40001
1.40001
1.40001
1.40001
1.40001
1.40001
1.40001
1.40001
1.40001
1.40001
1.40001
1.40001
1.40001
1.40001
1.40001
1.4
1.4
1.4
1.40001
1.40069
1.40851
1.48625
1.7425
2.18302
2.63186
2.92924
3.04373
3.06654
3.08142
3.08404
3.08369
3.08213
3.07674
3.06939
3.06884
3.06951
3.0695
3.06904
3.06848
3.06738
3.06624
3.06639
3.06655
3.06613
3.06583
3.06579
3.06576
3.06565
3.06555
3.06522
3.06416
3.06262
3.06146
3.05999
3.05775
3.05479
3.0499
3.04315
3.03595
3.0188
1.40001
1.40001
1.40001
1.40001
1.40001
1.40001
1.40001
1.40001
1.40001
1.40001
1.40001
1.40001
1.40001
1.40001
1.40001
1.40001
1.40001
1.40001
1.40001
1.40001
1.40001
1.40001
1.40001
1.40001
1.40001
1.40001
1.40001
1.40001
1.40001
1.40001
1.40001
1.40001
1.40001
1.40001
1.40001
1.40001
1.40001
1.4
1.4
1.4
1.40003
1.40158
1.41702
1.53419
1.8856
2.38424
2.73404
2.9235
3.026
3.06214
3.06583
3.07542
3.07692
3.07427
3.07281
3.0737
3.07416
3.0737
3.07278
3.07101
3.06868
3.06747
3.06763
3.06764
3.06778
3.06799
3.06788
3.06765
3.06732
3.0669
3.06636
3.06537
3.06416
3.06247
3.06014
3.0571
3.05209
3.04526
3.03824
3.02158
1.40001
1.40001
1.40001
1.40001
1.40001
1.40001
1.40001
1.40001
1.40001
1.40001
1.40001
1.40001
1.40001
1.40001
1.40001
1.40001
1.40001
1.40001
1.40001
1.40001
1.40001
1.40001
1.40001
1.40001
1.40001
1.40001
1.40001
1.40001
1.40001
1.40001
1.40001
1.40001
1.40001
1.40001
1.40001
1.40001
1.40001
1.40001
1.40001
1.4
1.4
1.40001
1.40009
1.40393
1.43848
1.62069
2.06061
2.61149
2.85961
2.95938
3.00116
3.03533
3.04661
3.04868
3.05317
3.05938
3.06537
3.06878
3.06908
3.069
3.06829
3.06689
3.06707
3.06746
3.06831
3.06953
3.0697
3.06966
3.06929
3.06898
3.06906
3.06865
3.06721
3.06496
3.06227
3.05901
3.05384
3.04684
3.03978
3.02348
1.40001
1.40001
1.40001
1.40001
1.40001
1.40001
1.40001
1.40001
1.40001
1.40001
1.40001
1.40001
1.40001
1.40001
1.40001
1.40001
1.40001
1.40001
1.40001
1.40001
1.40001
1.40001
1.40001
1.40001
1.40001
1.40001
1.40001
1.40001
1.40001
1.40001
1.40001
1.40001
1.40001
1.40001
1.40001
1.40001
1.40001
1.40001
1.40001
1.40001
1.40001
1.40001
1.4
1.40001
1.40038
1.41021
1.48856
1.77675
2.28187
2.77364
2.9903
3.0331
3.0384
3.03774
3.04575
3.0546
3.06121
3.06378
3.06371
3.06389
3.06347
3.06333
3.06433
3.06553
3.06763
3.07047
3.07138
3.07154
3.07137
3.07064
3.07008
3.06965
3.06845
3.06635
3.06366
3.06041
3.05531
3.04847
3.04152
3.02531
1.40001
1.40001
1.40001
1.40001
1.40001
1.40001
1.40001
1.40001
1.40001
1.40001
1.40001
1.40001
1.40001
1.40001
1.40001
1.40001
1.40001
1.40001
1.40001
1.40001
1.40001
1.40001
1.40001
1.40001
1.40001
1.40001
1.40001
1.40001
1.40001
1.40001
1.40001
1.40001
1.40001
1.40001
1.40001
1.40001
1.40001
1.40001
1.40001
1.40001
1.40001
1.40001
1.4
1.4
1.4
1.40006
1.40177
1.42889
1.588
1.99914
2.53379
2.90605
3.03752
3.05465
3.07821
3.08148
3.08103
3.07755
3.07101
3.06584
3.0645
3.06508
3.06578
3.06631
3.06829
3.07118
3.07229
3.07239
3.07157
3.07002
3.06967
3.06957
3.06855
3.06648
3.06389
3.06064
3.05549
3.049
3.04236
3.02655
1.40001
1.40001
1.40001
1.40001
1.40001
1.40001
1.40001
1.40001
1.40001
1.40001
1.40001
1.40001
1.40001
1.40001
1.40001
1.40001
1.40001
1.40001
1.40001
1.40001
1.40001
1.40001
1.40001
1.40001
1.40001
1.40001
1.40001
1.40001
1.40001
1.40001
1.40001
1.40001
1.40001
1.40001
1.40001
1.40001
1.40001
1.40001
1.40001
1.40001
1.40001
1.40001
1.40001
1.40001
1.4
1.4
1.40001
1.40036
1.40688
1.48093
1.78261
2.29903
2.70783
2.95144
3.05571
3.0736
3.0741
3.07604
3.07548
3.07161
3.06962
3.06901
3.06872
3.06873
3.06957
3.07161
3.07267
3.07253
3.07121
3.0695
3.06929
3.06931
3.06847
3.06652
3.06412
3.06093
3.05571
3.04927
3.04235
3.02622
1.40001
1.40001
1.40001
1.40001
1.40001
1.40001
1.40001
1.40001
1.40001
1.40001
1.40001
1.40001
1.40001
1.40001
1.40001
1.40001
1.40001
1.40001
1.40001
1.40001
1.40001
1.40001
1.40001
1.40001
1.40001
1.40001
1.40001
1.40001
1.40001
1.40001
1.40001
1.40001
1.40001
1.40001
1.40001
1.40001
1.40001
1.40001
1.40001
1.40001
1.40001
1.40001
1.40001
1.40001
1.40001
1.4
1.4
1.4
1.40004
1.40209
1.42751
1.6008
2.07493
2.63057
2.90003
2.98206
3.01251
3.03774
3.05483
3.05942
3.06006
3.062
3.06468
3.06683
3.06788
3.06926
3.07056
3.07064
3.06981
3.0686
3.06845
3.0686
3.06789
3.06618
3.06409
3.06112
3.05605
3.04955
3.0422
3.02544
1.40001
1.40001
1.40001
1.40001
1.40001
1.40001
1.40001
1.40001
1.40001
1.40001
1.40001
1.40001
1.40001
1.40001
1.40001
1.40001
1.40001
1.40001
1.40001
1.40001
1.40001
1.40001
1.40001
1.40001
1.40001
1.40001
1.40001
1.40001
1.40001
1.40001
1.40001
1.40001
1.40001
1.40001
1.40001
1.40001
1.40001
1.40001
1.40001
1.40001
1.40001
1.40001
1.40001
1.40001
1.40001
1.40001
1.40001
1.4
1.4
1.40001
1.40033
1.41099
1.50483
1.84797
2.41438
2.87307
3.00375
3.04459
3.0523
3.05223
3.05281
3.05795
3.06266
3.06528
3.06558
3.0652
3.06572
3.06728
3.06755
3.06723
3.06714
3.06738
3.0668
3.06553
3.06377
3.06086
3.05584
3.04944
3.04222
3.02522
1.40001
1.40001
1.40001
1.40001
1.40001
1.40001
1.40001
1.40001