/*--------------------------------*- C++ -*----------------------------------*\
| =========                 |                                                 |
| \\      /  F ield         | OpenFOAM: The Open Source CFD Toolbox           |
|  \\    /   O peration     | Version:  2206                                  |
|   \\  /    A nd           | Website:  www.openfoam.com                      |
|    \\/     M anipulation  |                                                 |
\*---------------------------------------------------------------------------*/
FoamFile
{
    version     2.0;
    format      ascii;
    arch        "LSB;label=32;scalar=64";
    class       volVectorField;
    location    "0.16";
    object      U;
}
// * * * * * * * * * * * * * * * * * * * * * * * * * * * * * * * * * * * * * //

dimensions      [0 1 -1 0 0 0 0];

internalField   nonuniform List<vector> 
4800
(
(4.25253 2.66379e-15 0)
(4.25253 3.39059e-15 0)
(4.25253 1.70029e-16 0)
(4.25253 -3.53061e-15 0)
(4.25253 3.86533e-14 0)
(4.25253 3.37125e-14 0)
(4.25253 3.21155e-14 0)
(4.25253 3.73698e-14 0)
(4.25253 6.41144e-14 0)
(4.25253 8.26943e-14 0)
(4.25253 1.93433e-14 0)
(4.25253 -1.53727e-14 0)
(4.25253 -3.4566e-14 0)
(4.25253 -2.73347e-14 0)
(4.25253 6.98687e-14 0)
(4.25253 1.3576e-13 0)
(4.25253 1.04835e-13 0)
(4.25253 9.41096e-14 0)
(4.25253 8.82219e-14 0)
(4.25253 9.13558e-14 0)
(4.25253 8.31844e-14 0)
(4.25253 1.31656e-14 0)
(4.25253 9.02823e-15 0)
(4.25253 2.46709e-15 0)
(4.25253 1.53593e-14 0)
(4.25253 3.80332e-14 0)
(4.25253 2.11303e-14 0)
(4.25253 2.86049e-15 0)
(4.25253 -4.88651e-14 0)
(4.25253 -1.12789e-13 0)
(4.25253 -1.28279e-13 0)
(4.25253 -1.70409e-13 0)
(4.25253 -7.19458e-14 0)
(4.25253 1.38891e-14 0)
(4.25253 1.49759e-14 0)
(4.25253 1.27422e-14 0)
(4.25253 -9.40162e-16 0)
(4.25253 2.76714e-15 0)
(4.25253 2.14937e-14 0)
(4.25253 2.99218e-14 0)
(4.25253 -8.74818e-15 0)
(4.25253 -1.54793e-14 0)
(4.25253 -2.18538e-14 0)
(4.25253 -9.35828e-15 0)
(4.25253 5.782e-14 0)
(4.25253 6.30909e-14 0)
(4.25253 1.17554e-14 0)
(4.25253 -6.7645e-15 0)
(4.25253 -7.80135e-15 0)
(4.25253 2.49176e-14 0)
(4.25253 -4.2684e-14 0)
(4.25253 -9.2436e-14 0)
(4.25253 -1.5446e-13 0)
(4.25253 -1.58701e-13 0)
(4.25253 4.75582e-14 0)
(4.25253 1.25772e-13 0)
(4.25253 1.13516e-13 0)
(4.25253 6.38944e-14 0)
(4.25253 2.25106e-14 0)
(4.25253 -5.55863e-14 0)
(4.25253 -1.02414e-13 0)
(4.25253 -9.98272e-14 0)
(4.25253 -6.15806e-14 0)
(4.25253 -8.30477e-15 0)
(4.25253 8.69417e-14 0)
(4.25253 1.11876e-13 0)
(4.25253 7.28859e-14 0)
(4.25253 -5.44094e-15 0)
(4.25253 -1.44065e-13 0)
(4.25253 -1.78021e-13 0)
(4.25253 -1.74994e-13 0)
(4.25253 -2.19728e-13 0)
(4.25253 -6.34543e-14 0)
(4.25253 6.22741e-14 0)
(4.25253 8.12307e-14 0)
(4.25253 6.01004e-14 0)
(4.25253 6.5498e-14 0)
(4.25253 1.14153e-13 0)
(4.25253 1.43551e-13 0)
(4.25253 7.20124e-14 0)
(4.25253 3.4906e-15 0)
(4.25253 -6.24775e-15 0)
(4.25253 -5.12789e-14 0)
(4.25253 -5.55563e-14 0)
(4.25253 7.65799e-15 0)
(4.25253 7.57864e-14 0)
(4.25253 1.03408e-13 0)
(4.25253 3.93735e-14 0)
(4.25253 -2.74047e-15 0)
(4.25253 6.13106e-15 0)
(4.25253 5.65631e-14 0)
(4.25253 6.00104e-14 0)
(4.25253 5.29925e-14 0)
(4.25253 -5.40093e-15 0)
(4.25253 -2.08103e-14 0)
(4.25253 -2.34474e-14 0)
(4.25253 4.89418e-14 0)
(4.25253 7.47629e-14 0)
(4.25253 5.67265e-14 0)
(4.25253 -6.58447e-15 0)
(4.25253 -2.37074e-14 0)
(4.25253 -1.98368e-14 0)
(4.25253 -3.92734e-14 0)
(4.25253 -4.08537e-14 0)
(4.25253 4.4381e-14 0)
(4.25253 5.00386e-14 0)
(4.25253 4.04637e-14 0)
(4.25253 -6.93453e-15 0)
(4.25253 -2.61312e-14 0)
(4.25253 -4.87484e-14 0)
(4.25253 -5.64564e-14 0)
(4.25253 -3.24056e-15 0)
(4.25253 -4.77883e-14 0)
(4.25253 -6.45145e-14 0)
(4.25253 -7.30059e-14 0)
(4.25253 5.32092e-14 0)
(4.25253 1.83885e-13 0)
(4.25253 2.2924e-13 0)
(4.25253 1.75844e-13 0)
(4.25253 1.31684e-13 0)
(4.25253 4.58046e-14 0)
(4.25253 5.08921e-14 0)
(4.25253 1.89466e-14 0)
(4.25253 5.66765e-15 0)
(4.25253 -4.12738e-15 0)
(4.25253 9.40329e-14 0)
(4.25253 1.64765e-13 0)
(4.25253 1.78681e-13 0)
(4.25253 1.22134e-13 0)
(4.25253 1.1679e-13 0)
(4.25253 1.04031e-13 0)
(4.25253 7.52363e-14 0)
(4.25253 8.0814e-14 0)
(4.25253 1.36094e-13 0)
(4.25253 1.44622e-13 0)
(4.25253 1.11003e-13 0)
(4.25253 1.28462e-13 0)
(4.25253 1.3573e-13 0)
(4.25253 6.58114e-14 0)
(4.25253 2.89983e-14 0)
(4.25253 -4.17039e-14 0)
(4.25253 -6.80684e-14 0)
(4.25253 -7.87969e-14 0)
(4.25253 -9.17492e-14 0)
(4.25253 -3.3069e-14 0)
(4.25253 -3.54761e-14 0)
(4.25253 -7.90436e-14 0)
(4.25253 -2.37808e-14 0)
(4.25253 4.73082e-15 0)
(4.25253 1.31756e-14 0)
(4.25253 7.96471e-15 0)
(4.25253 -5.68331e-14 0)
(4.25253 -3.00985e-14 0)
(4.25253 -1.87266e-14 0)
(4.25253 -3.24356e-14 0)
(4.25253 -6.90453e-15 0)
(4.25253 6.27808e-14 0)
(4.25253 8.05872e-14 0)
(4.25253 8.16074e-14 0)
(4.25253 8.37861e-14 0)
(4.25253 -1.89233e-14 0)
(4.25253 -3.04386e-15 0)
(4.25253 7.02855e-14 0)
(4.25253 8.65049e-14 0)
(4.25253 3.58829e-14 0)
(4.25253 1.57094e-14 0)
(4.25253 5.31058e-14 0)
(4.25253 1.29239e-13 0)
(4.25253 1.67962e-13 0)
(4.25253 8.59682e-14 0)
(4.25253 -3.67063e-15 0)
(4.25253 -1.57227e-14 0)
(4.25253 6.12772e-15 0)
(4.25253 3.07653e-14 0)
(4.25253 7.18657e-14 0)
(4.25253 7.86969e-14 0)
(4.25253 7.05255e-14 0)
(4.25253 1.77564e-14 0)
(4.25253 -4.6098e-14 0)
(4.25253 -1.02118e-13 0)
(4.25253 -1.23868e-13 0)
(4.25253 -1.7538e-13 0)
(4.25253 -1.7403e-13 0)
(4.25253 -1.06552e-13 0)
(4.25253 -3.25056e-15 0)
(4.25253 -1.76697e-14 0)
(4.25253 -1.09686e-14 0)
(4.25253 -2.09536e-14 0)
(4.25253 -2.42275e-14 0)
(4.25253 2.55377e-14 0)
(4.25253 2.81349e-14 0)
(4.25253 7.42828e-14 0)
(4.25253 1.25358e-13 0)
(4.25253 1.58444e-13 0)
(4.25253 1.44848e-13 0)
(4.25253 1.26378e-13 0)
(4.25253 1.08495e-13 0)
(4.25253 9.78036e-14 0)
(4.25253 6.14773e-14 0)
(4.25253 1.97081e-14 0)
(4.25253 -2.20405e-14 0)
(4.25253 -5.49595e-14 0)
(4.25253 -6.45445e-15 0)
(4.25253 2.37874e-14 0)
(4.25253 -1.08019e-15 0)
(4.25253 -5.35259e-14 0)
(4.25253 -4.41576e-14 0)
(4.25253 -4.93752e-15 0)
(4.25253 2.84749e-14 0)
(4.25253 4.76249e-14 0)
(4.25253 -1.03751e-14 0)
(4.25253 -4.19772e-14 0)
(4.25253 -4.52411e-14 0)
(4.25253 -1.49226e-14 0)
(4.25253 -7.65032e-14 0)
(4.25253 -6.04038e-14 0)
(4.25253 -7.70433e-14 0)
(4.25253 -5.17789e-14 0)
(4.25253 3.03452e-14 0)
(4.25253 3.34424e-14 0)
(4.25253 -4.96086e-15 0)
(4.25253 -6.17673e-14 0)
(4.25253 -7.56331e-14 0)
(4.25253 -6.41011e-14 0)
(4.25253 -7.714e-14 0)
(4.25253 -4.10538e-14 0)
(4.25253 2.46243e-14 0)
(4.25253 6.47679e-14 0)
(4.25253 8.28743e-14 0)
(4.25253 1.3226e-13 0)
(4.25253 1.40718e-13 0)
(4.25253 1.66585e-13 0)
(4.25253 1.55707e-13 0)
(4.25253 1.47469e-13 0)
(4.25253 2.35464e-13 0)
(4.25253 2.88323e-13 0)
(4.25253 2.95504e-13 0)
(4.25253 2.30403e-13 0)
(4.25253 7.9047e-14 0)
(4.25253 6.27613e-14 0)
(4.25253 1.37924e-14 0)
(4.25253 -1.45192e-14 0)
(4.25253 -3.08353e-14 0)
(4.25253 -8.52147e-15 0)
(4.25253 7.40128e-15 0)
(4.25253 -1.23288e-14 0)
(4.25253 -1.20487e-14 0)
(4.25253 -5.77666e-14 0)
(4.25253 -5.77766e-14 0)
(4.25253 -5.50462e-14 0)
(4.25253 -4.93619e-14 0)
(4.25253 -8.18608e-14 0)
(4.25253 -9.45097e-14 0)
(4.25253 -5.37226e-14 0)
(4.25253 -2.78681e-14 0)
(4.25253 -2.6838e-14 0)
(4.25253 -1.04951e-14 0)
(4.25253 3.15921e-14 0)
(4.25253 4.56612e-14 0)
(4.25253 6.07838e-14 0)
(4.25253 4.34075e-14 0)
(4.25253 6.03104e-14 0)
(4.25253 4.11338e-14 0)
(4.25253 3.51894e-14 0)
(4.25253 -3.94601e-14 0)
(4.25253 -2.99618e-14 0)
(4.25253 -8.06139e-15 0)
(4.25253 4.35975e-14 0)
(4.25253 8.62182e-14 0)
(4.25253 4.81216e-14 0)
(4.25253 6.27208e-14 0)
(4.25253 6.27508e-14 0)
(4.25253 7.77001e-14 0)
(4.25253 1.3719e-13 0)
(4.25253 7.65466e-14 0)
(4.25253 2.49977e-14 0)
(4.25253 -1.91233e-14 0)
(4.25253 -4.67914e-14 0)
(4.25253 2.78115e-14 0)
(4.25253 1.0745e-13 0)
(4.25253 6.06438e-15 0)
(4.25253 4.58513e-14 0)
(4.25253 3.19422e-14 0)
(4.25253 1.99734e-14 0)
(4.25253 2.52444e-14 0)
(4.25253 3.32591e-14 0)
(4.25253 1.1742e-14 0)
(4.25253 -6.50112e-15 0)
(4.25253 -4.16039e-14 0)
(4.25253 -6.48479e-14 0)
(4.25253 6.82451e-15 0)
(4.25253 2.83982e-14 0)
(4.25253 2.58711e-15 0)
(4.25253 6.92153e-14 0)
(4.25253 9.35262e-14 0)
(4.25253 5.38226e-14 0)
(4.25253 7.76467e-15 0)
(4.25253 -2.81082e-14 0)
(4.25253 5.90102e-16 0)
(4.25253 -1.36857e-14 0)
(4.25253 3.17722e-15 0)
(4.25253 3.25089e-14 0)
(4.25253 5.02854e-14 0)
(4.25253 4.46544e-14 0)
(4.25253 5.43961e-14 0)
(4.25253 -1.26789e-14 0)
(4.25253 -4.31541e-14 0)
(4.25253 -7.66266e-14 0)
(4.25253 1.16587e-14 0)
(4.25253 5.34492e-14 0)
(4.25253 2.74814e-14 0)
(4.25253 6.9412e-15 0)
(4.25253 7.87436e-14 0)
(4.25253 1.09282e-13 0)
(4.25253 4.12038e-14 0)
(4.25253 -5.97537e-14 0)
(4.25253 -9.76769e-14 0)
(4.25253 -9.94038e-14 0)
(4.25253 -5.99504e-14 0)
(4.25253 6.23241e-15 0)
(4.25253 -8.39812e-15 0)
(4.25253 4.29741e-15 0)
(4.25253 3.82733e-14 0)
(4.25253 5.25891e-14 0)
(4.25253 5.09188e-14 0)
(4.25253 8.75818e-15 0)
(4.25253 -1.16553e-14 0)
(4.25253 -8.45813e-15 0)
(4.25253 -1.06118e-14 0)
(4.25253 -1.10719e-14 0)
(4.25253 2.1087e-14 0)
(4.25253 8.34978e-14 0)
(4.25253 9.60466e-14 0)
(4.25253 4.86384e-14 0)
(4.25253 3.63129e-14 0)
(4.25253 2.39508e-14 0)
(4.25253 -4.2384e-14 0)
(4.25253 -5.803e-14 0)
(4.25253 2.30306e-14 0)
(4.25253 5.24057e-14 0)
(4.25253 4.70648e-14 0)
(4.25253 4.59413e-15 0)
(4.25253 5.36959e-14 0)
(4.25253 4.53912e-14 0)
(4.25253 8.36144e-14 0)
(4.25253 1.09562e-13 0)
(4.25253 8.49547e-14 0)
(4.25253 5.89235e-14 0)
(4.25253 1.05191e-13 0)
(4.25253 1.42718e-13 0)
(4.25253 1.21998e-13 0)
(4.25253 1.43018e-13 0)
(4.25253 1.56294e-13 0)
(4.25253 1.59774e-13 0)
(4.25253 1.07339e-13 0)
(4.25253 2.63379e-14 0)
(4.25253 -1.60424e-13 0)
(4.25253 -2.50727e-13 0)
(4.25253 -2.36164e-13 0)
(4.25253 -2.31156e-13 0)
(4.25253 4.07404e-15 0)
(4.25253 -2.45976e-14 0)
(4.25253 -2.90684e-14 0)
(4.25253 -4.48577e-14 0)
(4.25253 -4.36475e-14 0)
(4.25253 8.50814e-15 0)
(4.25253 3.43259e-14 0)
(4.25253 -1.87432e-14 0)
(4.25253 -3.05986e-14 0)
(4.25253 -7.20791e-15 0)
(4.25253 -4.33408e-16 0)
(4.25253 -5.98437e-15 0)
(4.25253 -2.11203e-14 0)
(4.25253 -5.23524e-14 0)
(4.25253 -3.76232e-14 0)
(4.25253 -2.50577e-14 0)
(4.25253 -5.69432e-15 0)
(4.25253 2.9175e-14 0)
(4.25253 1.48392e-14 0)
(4.25253 1.40358e-15 0)
(4.25253 4.2674e-15 0)
(4.25253 5.61264e-14 0)
(4.25253 -2.05869e-14 0)
(4.25253 -5.90535e-14 0)
(4.25253 -5.93469e-14 0)
(4.25253 -6.29109e-15 0)
(4.25253 1.45358e-15 0)
(4.25253 -4.93219e-14 0)
(4.25253 -9.2936e-14 0)
(4.25253 -1.10156e-13 0)
(4.25253 5.66298e-14 0)
(4.25253 1.64418e-13 0)
(4.25253 1.24828e-13 0)
(4.25253 7.5103e-14 0)
(4.25253 3.25756e-14 0)
(4.25253 -3.14788e-14 0)
(4.25253 -9.53398e-14 0)
(4.25253 -1.38064e-13 0)
(4.25253 -1.28999e-13 0)
(4.25253 -9.32181e-14 0)
(4.25253 1.48526e-14 0)
(4.25253 2.08536e-14 0)
(4.25253 1.05918e-14 0)
(4.25253 -1.07585e-14 0)
(4.25253 -1.33023e-15 0)
(4.25253 3.02552e-14 0)
(4.25253 -3.93001e-14 0)
(4.25253 -6.98587e-14 0)
(4.25253 -1.16827e-13 0)
(4.25253 -1.37734e-13 0)
(4.25253 -1.30549e-13 0)
(4.25253 -1.3523e-13 0)
(4.25253 -1.65109e-13 0)
(4.25253 -1.66252e-13 0)
(4.25253 -7.86469e-14 0)
(4.25253 -6.47145e-14 0)
(4.25253 2.76214e-14 0)
(4.25253 8.74884e-14 0)
(4.25253 9.10191e-14 0)
(4.25253 3.75131e-14 0)
(4.25253 -7.45129e-15 0)
(4.25253 -3.27557e-14 0)
(4.25253 -9.73768e-14 0)
(4.25253 -1.08559e-13 0)
(4.25253 -1.78644e-13 0)
(4.25253 -2.25329e-13 0)
(4.25253 -1.81371e-13 0)
(4.25253 -1.87999e-13 0)
(4.25253 -1.86609e-13 0)
(4.25253 -1.23975e-13 0)
(4.25253 -5.62264e-14 0)
(4.25253 -2.80048e-15 0)
(4.25253 -3.58595e-14 0)
(4.25253 -7.45262e-14 0)
(4.25253 -1.34987e-13 0)
(4.25253 -1.65919e-13 0)
(4.25253 -8.29777e-14 0)
(4.25253 -6.41777e-15 0)
(4.25253 7.23792e-15 0)
(4.25253 -3.98136e-14 0)
(4.25253 -2.40075e-14 0)
(4.25253 -1.13653e-14 0)
(4.25253 -1.68129e-14 0)
(4.25253 -1.27489e-14 0)
(4.25253 5.81767e-15 0)
(4.25253 -2.83849e-14 0)
(4.25253 -5.47028e-14 0)
(4.25253 -6.81151e-14 0)
(4.25253 -6.68916e-14 0)
(4.25253 -2.13163e-13 0)
(4.25253 -2.84719e-13 0)
(4.25253 -2.51237e-13 0)
(4.25253 -1.74467e-13 0)
(4.25253 -1.28726e-13 0)
(4.25253 2.33807e-14 0)
(4.25253 1.09742e-13 0)
(4.25253 1.25628e-13 0)
(4.25253 9.77702e-14 0)
(4.25253 4.49044e-14 0)
(4.25253 1.22354e-14 0)
(4.25253 1.65395e-14 0)
(4.25253 7.49696e-14 0)
(4.25253 1.29636e-13 0)
(4.25253 1.41751e-13 0)
(4.25253 9.68167e-14 0)
(4.25253 -2.23372e-14 0)
(4.25253 -1.02314e-13 0)
(4.25253 -1.44202e-13 0)
(4.25253 -1.55927e-13 0)
(4.25253 -1.1559e-13 0)
(4.25253 -9.42063e-14 0)
(4.25253 -1.10309e-13 0)
(4.25253 -1.02431e-13 0)
(4.25253 -1.48286e-13 0)
(4.25253 -1.27542e-13 0)
(4.25253 -4.01003e-14 0)
(4.25253 6.91753e-14 0)
(4.25253 8.1194e-14 0)
(4.25253 5.65164e-14 0)
(4.25253 5.72908e-14 0)
(4.25253 -3.30724e-15 0)
(4.25253 -1.01951e-14 0)
(4.25253 -2.53877e-14 0)
(4.25253 -4.20406e-15 0)
(4.25253 -1.88333e-14 0)
(4.25253 -3.70531e-14 0)
(4.25253 -2.12803e-14 0)
(4.25253 -1.49592e-14 0)
(4.25253 2.99918e-14 0)
(4.25253 2.79782e-14 0)
(4.25253 8.78452e-14 0)
(4.25253 1.19807e-13 0)
(4.25253 1.50393e-13 0)
(4.25253 1.02141e-13 0)
(4.25253 -2.01501e-14 0)
(4.25253 -2.75481e-14 0)
(4.25253 -5.78767e-15 0)
(4.25253 -2.45376e-15 0)
(4.25253 -4.70615e-14 0)
(4.25253 -4.28141e-14 0)
(4.25253 2.67046e-15 0)
(4.25253 5.82134e-14 0)
(4.25253 1.17754e-13 0)
(4.25253 1.78351e-13 0)
(4.25253 1.87772e-13 0)
(4.25253 9.22426e-14 0)
(4.25253 -6.83418e-14 0)
(4.25253 -2.06599e-13 0)
(4.25253 -1.91513e-13 0)
(4.25253 -1.54013e-13 0)
(4.25253 -1.59561e-13 0)
(4.25253 -1.41271e-13 0)
(4.25253 -1.29286e-13 0)
(4.25253 -6.51212e-14 0)
(4.25253 -7.58131e-15 0)
(4.25253 5.817e-14 0)
(4.25253 6.59714e-14 0)
(4.25253 7.64832e-14 0)
(4.25253 9.2386e-14 0)
(4.25253 1.42303e-13 0)
(4.25253 2.27973e-14 0)
(4.25253 8.58915e-14 0)
(4.25253 1.1322e-13 0)
(4.25253 1.00724e-13 0)
(4.25253 4.91018e-14 0)
(4.25253 3.0922e-14 0)
(4.25253 3.13221e-14 0)
(4.25253 6.87419e-14 0)
(4.25253 1.30606e-13 0)
(4.25253 2.16054e-13 0)
(4.25253 3.21752e-13 0)
(4.25253 3.16528e-13 0)
(4.25253 2.65753e-13 0)
(4.25253 7.22758e-14 0)
(4.25253 2.83082e-14 0)
(4.25253 -9.96839e-15 0)
(4.25253 1.69829e-14 0)
(4.25253 5.3966e-14 0)
(4.25253 2.34574e-14 0)
(4.25253 3.62329e-14 0)
(4.25253 5.24424e-15 0)
(4.25253 -4.05737e-15 0)
(4.25253 3.94468e-14 0)
(4.25253 1.26162e-13 0)
(4.25253 1.46772e-13 0)
(4.25253 1.40591e-13 0)
(4.25253 8.91221e-14 0)
(4.25253 3.42226e-14 0)
(4.25253 2.58445e-14 0)
(4.25253 2.01635e-14 0)
(4.25253 -7.17724e-14 0)
(4.25253 -8.16808e-14 0)
(4.25253 -1.63162e-14 0)
(4.25253 1.50399e-13 0)
(4.25253 1.68562e-13 0)
(4.25253 1.61698e-13 0)
(4.25253 2.37654e-13 0)
(4.25253 2.31387e-13 0)
(4.25253 2.1322e-13 0)
(4.25253 1.85622e-13 0)
(4.25253 -1.10752e-14 0)
(4.25253 -8.82819e-15 0)
(4.25253 -3.21489e-14 0)
(4.25253 -6.17207e-14 0)
(4.25253 -6.47912e-14 0)
(4.25253 -2.27506e-14 0)
(4.25253 2.10103e-14 0)
(4.25253 7.84502e-14 0)
(4.25253 6.42611e-14 0)
(4.25253 8.34277e-14 0)
(4.25253 3.78465e-14 0)
(4.25253 4.97919e-14 0)
(4.25253 1.59928e-14 0)
(4.25253 4.18006e-14 0)
(4.25253 6.40944e-14 0)
(4.25253 7.51563e-14 0)
(4.25253 5.0172e-14 0)
(4.25253 1.81031e-15 0)
(4.25253 -3.40059e-14 0)
(4.25253 -6.27675e-14 0)
(4.25253 -2.20838e-14 0)
(4.25253 7.29826e-14 0)
(4.25253 1.17114e-13 0)
(4.25253 -2.95051e-15 0)
(4.25253 -3.79799e-14 0)
(4.25253 -4.57079e-14 0)
(4.25253 4.2704e-14 0)
(4.25253 1.80121e-13 0)
(4.25253 1.5434e-13 0)
(4.25253 5.00486e-14 0)
(4.25253 -5.76033e-14 0)
(4.25253 -6.58347e-14 0)
(4.25253 1.26022e-14 0)
(4.25253 9.34728e-14 0)
(4.25253 1.20064e-13 0)
(4.25253 1.07382e-13 0)
(4.25253 1.27692e-13 0)
(4.25253 1.61051e-13 0)
(4.25253 1.86649e-13 0)
(4.25253 2.43918e-13 0)
(4.25253 -6.44778e-15 0)
(4.25253 -6.98487e-14 0)
(4.25253 -9.80769e-14 0)
(4.25253 -6.51079e-14 0)
(4.25253 -2.54044e-14 0)
(4.25253 1.45292e-14 0)
(4.25253 5.32725e-14 0)
(4.25253 6.30742e-14 0)
(4.25253 4.00436e-14 0)
(4.25253 -1.71596e-14 0)
(4.25253 -4.87451e-14 0)
(4.25253 -4.98319e-14 0)
(4.25253 -3.88567e-14 0)
(4.25253 -1.17087e-14 0)
(4.25253 -1.48192e-14 0)
(4.25253 -2.24372e-15 0)
(4.25253 2.83349e-14 0)
(4.25253 1.14953e-14 0)
(4.25253 4.22806e-14 0)
(4.25253 2.47909e-14 0)
(4.25253 8.99455e-14 0)
(4.25253 8.67216e-14 0)
(4.25253 -1.1632e-14 0)
(4.25253 -6.88686e-14 0)
(4.25253 -1.03545e-13 0)
(4.25253 -4.12371e-14 0)
(4.25253 5.45328e-14 0)
(4.25253 5.03087e-14 0)
(4.25253 4.54579e-14 0)
(4.25253 1.37457e-14 0)
(4.25253 -2.22738e-14 0)
(4.25253 -3.06953e-14 0)
(4.25253 -2.54511e-14 0)
(4.25253 3.55428e-14 0)
(4.25253 1.1537e-13 0)
(4.25253 1.21901e-13 0)
(4.25253 8.68883e-14 0)
(4.25253 8.7075e-14 0)
(4.25253 1.31189e-13 0)
(4.25253 1.46308e-13 0)
(4.25253 -2.95384e-15 0)
(4.25253 1.14853e-14 0)
(4.25253 2.13103e-14 0)
(4.25253 6.33676e-14 0)
(4.25253 8.67783e-14 0)
(4.25253 8.76318e-14 0)
(4.25253 4.72382e-14 0)
(4.25253 2.7138e-14 0)
(4.25253 3.82933e-14 0)
(4.25253 2.98985e-14 0)
(4.25253 4.33842e-14 0)
(4.25253 4.37709e-14 0)
(4.25253 4.30641e-14 0)
(4.25253 1.27089e-14 0)
(4.25253 -5.10855e-14 0)
(4.25253 -9.31528e-14 0)
(4.25253 -7.41628e-14 0)
(4.25253 -7.94804e-15 0)
(4.25253 -1.05085e-14 0)
(4.25253 -3.05819e-14 0)
(4.25253 -6.80418e-14 0)
(4.25253 -8.84686e-14 0)
(4.25253 -1.25582e-13 0)
(4.25253 -9.12858e-14 0)
(4.25253 -8.21042e-14 0)
(4.25253 -7.86969e-14 0)
(4.25253 -3.02319e-14 0)
(4.25253 -5.80434e-15 0)
(4.25253 4.31741e-15 0)
(4.25253 4.66447e-14 0)
(4.25253 9.17425e-14 0)
(4.25253 1.1535e-13 0)
(4.25253 1.16794e-13 0)
(4.25253 8.01138e-15 0)
(4.25253 -6.11839e-14 0)
(4.25253 -3.00919e-14 0)
(4.25253 9.4583e-15 0)
(4.25253 4.56412e-14 0)
(4.25253 1.01971e-13 0)
(4.25253 8.76586e-14 0)
(4.25253 -9.44496e-15 0)
(4.25253 5.29058e-14 0)
(4.25253 7.94304e-14 0)
(4.25253 6.08705e-14 0)
(4.25253 5.11422e-14 0)
(4.25253 -5.92436e-15 0)
(4.25253 -3.78332e-14 0)
(4.25253 -4.69548e-14 0)
(4.25253 2.11403e-14 0)
(4.25253 1.03208e-13 0)
(4.25253 9.76435e-14 0)
(4.25253 7.86969e-14 0)
(4.25253 2.66046e-14 0)
(4.25253 2.96918e-14 0)
(4.25253 4.00036e-14 0)
(4.25253 6.98721e-14 0)
(4.25253 6.0117e-14 0)
(4.25253 3.03252e-14 0)
(4.25253 -1.3537e-13 0)
(4.25253 -2.10606e-13 0)
(4.25253 -2.67396e-13 0)
(4.25253 -2.70117e-13 0)
(4.25253 -2.05319e-13 0)
(4.25253 -1.85465e-14 0)
(4.25253 -3.79899e-14 0)
(4.25253 -6.33976e-14 0)
(4.25253 -1.76597e-14 0)
(4.25253 1.12336e-13 0)
(4.25253 1.25222e-13 0)
(4.25253 1.88233e-13 0)
(4.25253 2.1335e-13 0)
(4.25253 2.46993e-13 0)
(4.25253 2.38721e-13 0)
(4.25253 1.47375e-13 0)
(4.25253 -3.21055e-14 0)
(4.25253 -6.24108e-14 0)
(4.25253 -1.26358e-13 0)
(4.25253 -1.51806e-13 0)
(4.25253 -1.00284e-14 0)
(4.25253 6.34486e-14 0)
(4.25253 1.24155e-14 0)
(4.25253 1.23621e-14 0)
(4.25253 1.51159e-14 0)
(4.25253 1.29356e-15 0)
(4.25253 -4.31008e-14 0)
(4.25253 -9.62966e-14 0)
(4.25253 -8.94488e-14 0)
(4.25253 -3.06053e-14 0)
(4.25253 3.39392e-15 0)
(4.25253 5.781e-15 0)
(4.25253 6.02771e-15 0)
(4.25253 -2.20038e-16 0)
(4.25253 2.1207e-14 0)
(4.25253 1.01388e-13 0)
(4.25253 1.70789e-13 0)
(4.25253 1.83338e-13 0)
(4.25253 1.27089e-13 0)
(4.25253 -7.90803e-14 0)
(4.25253 -1.47739e-13 0)
(4.25253 -1.76147e-13 0)
(4.25253 -2.42949e-13 0)
(4.25253 -1.80858e-13 0)
(4.25253 4.4661e-14 0)
(4.25253 1.06235e-13 0)
(4.25253 9.46263e-14 0)
(4.25253 -3.51927e-14 0)
(4.25253 -1.38991e-14 0)
(4.25253 1.03161e-13 0)
(4.25253 1.32486e-13 0)
(4.25253 1.23591e-13 0)
(4.25253 2.1059e-13 0)
(4.25253 1.39244e-13 0)
(4.25253 1.14196e-13 0)
(4.25253 1.45502e-13 0)
(4.25253 1.77481e-13 0)
(4.25253 1.06272e-13 0)
(4.25253 -5.07121e-14 0)
(4.25253 -1.36607e-13 0)
(4.25253 -7.19158e-14 0)
(4.25253 -1.40086e-14 0)
(4.25253 2.36708e-15 0)
(4.25253 -2.19838e-14 0)
(4.25253 -4.89151e-14 0)
(4.25253 -7.26625e-14 0)
(4.25253 -9.32194e-14 0)
(4.25253 -9.70501e-14 0)
(4.25253 -8.83319e-14 0)
(4.25253 -6.52979e-14 0)
(4.25253 -8.8642e-14 0)
(4.25253 -1.159e-13 0)
(4.25253 -8.20275e-14 0)
(4.25253 6.46112e-15 0)
(4.25253 6.51679e-14 0)
(4.25253 4.17105e-14 0)
(4.25253 3.67964e-14 0)
(4.25253 -2.57344e-14 0)
(4.25253 -7.86969e-14 0)
(4.25253 -8.14874e-14 0)
(4.25253 -5.16923e-14 0)
(4.25253 -1.15383e-13 0)
(4.25253 -9.15325e-14 0)
(4.25253 -5.63697e-14 0)
(4.25253 -1.33023e-15 0)
(4.25253 5.72432e-14 0)
(4.25253 5.72366e-14 0)
(4.25253 -4.52745e-14 0)
(4.25253 -6.54813e-14 0)
(4.25253 -4.31775e-14 0)
(4.25253 -2.73947e-14 0)
(4.25253 1.17487e-14 0)
(4.25253 1.25188e-14 0)
(4.25253 2.29706e-14 0)
(4.25253 8.88987e-14 0)
(4.25253 1.81668e-13 0)
(4.25253 1.84625e-13 0)
(4.25253 9.72535e-14 0)
(4.25253 -1.80531e-14 0)
(4.25253 -5.98637e-14 0)
(4.25253 -5.92036e-14 0)
(4.25253 -2.85238e-14 0)
(4.25253 -2.06702e-16 0)
(4.25253 9.94505e-15 0)
(4.25253 -1.23021e-14 0)
(4.25253 -5.91369e-14 0)
(4.25253 -3.94301e-14 0)
(4.25253 -1.66262e-14 0)
(4.25253 -6.67449e-15 0)
(4.25253 -4.03736e-15 0)
(4.25253 -1.21921e-14 0)
(4.25253 -9.72168e-15 0)
(4.25253 -2.62979e-14 0)
(4.25253 7.92804e-15 0)
(4.25253 6.63448e-15 0)
(4.25253 -4.55545e-14 0)
(4.25253 -1.74667e-13 0)
(4.25253 -2.01908e-13 0)
(4.25253 -2.13137e-13 0)
(4.25253 -9.40562e-14 0)
(4.25253 -2.08436e-14 0)
(4.25253 -3.1032e-14 0)
(4.25253 1.57994e-14 0)
(4.25253 3.93168e-14 0)
(4.25253 5.06754e-15 0)
(4.25253 -7.55831e-14 0)
(4.25253 -4.63647e-14 0)
(4.25253 5.81967e-14 0)
(4.25253 1.67296e-14 0)
(4.25253 -4.32241e-14 0)
(4.25253 -4.48711e-14 0)
(4.25253 -3.54728e-15 0)
(4.25253 1.43691e-15 0)
(4.25253 4.10271e-14 0)
(4.25253 8.05106e-14 0)
(4.25253 1.15577e-13 0)
(4.25253 1.01618e-13 0)
(4.25253 3.36691e-14 0)
(4.25253 -2.11203e-14 0)
(4.25253 -4.36875e-14 0)
(4.25253 -2.26639e-14 0)
(4.25253 2.7804e-14 0)
(4.25253 3.14621e-14 0)
(4.25253 1.13753e-14 0)
(4.25253 -3.01919e-14 0)
(4.25253 -2.03135e-14 0)
(4.25253 2.74514e-14 0)
(4.25253 3.33891e-14 0)
(4.25253 -1.16353e-15 0)
(4.25253 -1.65295e-14 0)
(4.25253 1.96267e-14 0)
(4.25253 -2.68046e-15 0)
(4.25253 -5.764e-14 0)
(4.25253 -5.98603e-14 0)
(4.25253 -4.01969e-14 0)
(4.25253 8.1014e-15 0)
(4.25253 -2.95918e-14 0)
(4.25253 -1.04465e-13 0)
(4.25253 -1.03398e-13 0)
(4.25253 -1.1418e-13 0)
(4.25253 -1.34263e-13 0)
(4.25253 -1.1635e-13 0)
(4.25253 -7.5273e-14 0)
(4.25253 -1.45658e-14 0)
(4.25253 -1.14186e-14 0)
(4.25253 2.24039e-15 0)
(4.25253 -9.34495e-15 0)
(4.25253 1.21788e-14 0)
(4.25253 3.56895e-14 0)
(4.25253 2.26406e-14 0)
(4.25253 -1.26689e-14 0)
(4.25253 6.29109e-15 0)
(4.25253 1.43258e-14 0)
(4.25253 -4.77416e-15 0)
(4.25253 -3.60229e-14 0)
(4.25253 -2.86449e-14 0)
(4.25253 -2.49876e-14 0)
(4.25253 -1.88032e-14 0)
(4.25253 5.43461e-14 0)
(4.25253 6.1554e-14 0)
(4.25253 5.00953e-14 0)
(4.25253 1.84463e-15 0)
(4.25253 -9.48497e-15 0)
(4.25253 -2.48343e-14 0)
(4.25253 -2.24072e-14 0)
(4.25253 3.20155e-14 0)
(4.25253 1.31766e-13 0)
(4.25253 1.11119e-13 0)
(4.25253 -9.0949e-15 0)
(4.25253 -1.1408e-13 0)
(4.25253 -1.13046e-13 0)
(4.25253 -9.93272e-14 0)
(4.25253 -7.97904e-14 0)
(4.25253 -8.35744e-14 0)
(4.25253 -3.16955e-14 0)
(4.25253 -9.02823e-15 0)
(4.25253 -1.79731e-14 0)
(4.25253 -2.25272e-14 0)
(4.25253 -5.10088e-14 0)
(4.25253 -5.52995e-14 0)
(4.25253 -6.45111e-14 0)
(4.25253 -2.26139e-14 0)
(4.25253 6.36777e-16 0)
(4.25253 -5.77866e-14 0)
(4.25253 -6.42878e-14 0)
(4.25253 -3.2789e-14 0)
(4.25253 -1.09952e-14 0)
(4.25253 -8.95221e-14 0)
(4.25253 -9.81603e-14 0)
(4.25253 -1.04228e-13 0)
(4.25253 -5.66698e-14 0)
(4.25253 3.40225e-14 0)
(4.25253 7.728e-15 0)
(4.25253 -8.72184e-14 0)
(4.25253 -1.3244e-13 0)
(4.25253 -1.20027e-13 0)
(4.25253 -1.74974e-13 0)
(4.25253 -1.59598e-13 0)
(4.25253 -8.23642e-14 0)
(4.25253 4.33308e-14 0)
(4.25253 6.1784e-14 0)
(4.25253 -1.02009e-13 0)
(4.25253 -2.1417e-14 0)
(4.25253 -2.44409e-14 0)
(4.25253 6.89452e-15 0)
(4.25253 1.52193e-14 0)
(4.25253 2.3304e-15 0)
(4.25253 6.5678e-15 0)
(4.25253 5.07288e-14 0)
(4.25253 -2.50377e-14 0)
(4.25253 -5.36359e-14 0)
(4.25253 -9.61166e-15 0)
(4.25253 3.92401e-14 0)
(4.25253 -1.942e-14 0)
(4.25253 -1.03528e-13 0)
(4.25253 -1.08372e-13 0)
(4.25253 -9.76735e-14 0)
(4.25253 -2.99985e-14 0)
(4.25253 2.6748e-14 0)
(4.25253 4.20673e-14 0)
(4.25253 3.16588e-14 0)
(4.25253 7.07222e-14 0)
(4.25253 1.00007e-13 0)
(4.25253 8.66716e-14 0)
(4.25253 5.66831e-14 0)
(4.25253 7.58664e-14 0)
(4.25253 8.76718e-14 0)
(4.25253 7.94237e-14 0)
(4.25253 7.91137e-15 0)
(4.25253 -4.52678e-14 0)
(4.25253 -5.75533e-14 0)
(4.25253 1.69496e-14 0)
(4.25253 1.03618e-14 0)
(4.25253 -5.36093e-14 0)
(4.25253 -1.5365e-13 0)
(4.25253 -1.44188e-13 0)
(4.25253 -7.46162e-14 0)
(4.25253 1.67596e-14 0)
(4.25253 2.24972e-14 0)
(4.25253 -3.30657e-14 0)
(4.25253 -1.27622e-13 0)
(4.25253 -2.02842e-13 0)
(4.25253 -6.9612e-15 0)
(4.25253 -1.90933e-14 0)
(4.25253 1.30156e-14 0)
(4.25253 -3.864e-15 0)
(4.25253 -6.07138e-14 0)
(4.25253 -4.62213e-14 0)
(4.25253 2.20505e-14 0)
(4.25253 8.01605e-14 0)
(4.25253 2.31807e-14 0)
(4.25253 6.44445e-15 0)
(4.25253 -2.97218e-14 0)
(4.25253 -8.20342e-14 0)
(4.25253 -8.15141e-14 0)
(4.25253 -6.62814e-14 0)
(4.25253 -4.54712e-14 0)
(4.25253 -2.92284e-14 0)
(4.25253 4.94185e-14 0)
(4.25253 1.00237e-13 0)
(4.25253 1.22061e-13 0)
(4.25253 5.07621e-14 0)
(4.25253 2.90483e-14 0)
(4.25253 3.61929e-14 0)
(4.25253 5.58563e-14 0)
(4.25253 1.745e-13 0)
(4.25253 1.82281e-13 0)
(4.25253 1.9115e-13 0)
(4.25253 1.55057e-13 0)
(4.25253 1.158e-13 0)
(4.25253 2.08203e-14 0)
(4.25253 1.96534e-14 0)
(4.25253 4.86484e-14 0)
(4.25253 7.08456e-14 0)
(4.25253 -7.74767e-14 0)
(4.25253 -1.3771e-13 0)
(4.25253 -1.152e-13 0)
(4.25253 -9.78569e-14 0)
(4.25253 -6.23608e-14 0)
(4.25253 -8.82552e-14 0)
(4.25253 -1.52423e-13 0)
(4.25253 -1.65602e-13 0)
(4.25253 -1.46225e-14 0)
(4.25253 2.19038e-15 0)
(4.25253 4.49278e-14 0)
(4.25253 9.17125e-14 0)
(4.25253 1.08822e-13 0)
(4.25253 9.23126e-14 0)
(4.25253 8.3061e-14 0)
(4.25253 9.73868e-14 0)
(4.25253 7.3376e-14 0)
(4.25253 -2.83049e-14 0)
(4.25253 -7.93204e-14 0)
(4.25253 -8.62449e-14 0)
(4.25253 -1.16697e-13 0)
(4.25253 -1.41408e-13 0)
(4.25253 -1.47359e-13 0)
(4.25253 -8.60682e-14 0)
(4.25253 6.98821e-14 0)
(4.25253 1.23565e-13 0)
(4.25253 1.12866e-13 0)
(4.25253 1.84799e-14 0)
(4.25253 1.30056e-14 0)
(4.25253 2.10036e-15 0)
(4.25253 9.25093e-14 0)
(4.25253 1.58277e-13 0)
(4.25253 1.63772e-13 0)
(4.25253 1.1731e-13 0)
(4.25253 9.51031e-14 0)
(4.25253 1.35897e-13 0)
(4.25253 1.46619e-13 0)
(4.25253 -1.02151e-14 0)
(4.25253 -2.63746e-14 0)
(4.25253 3.36591e-14 0)
(4.25253 2.24939e-14 0)
(4.25253 -1.09922e-13 0)
(4.25253 -1.25995e-13 0)
(4.25253 -1.05538e-13 0)
(4.25253 -1.08905e-13 0)
(4.25253 -1.01284e-13 0)
(4.25253 -1.06265e-13 0)
(4.25253 -5.37005e-14 0)
(4.25253 -2.06369e-15 0)
(4.25253 9.68167e-15 0)
(4.25253 4.8125e-14 0)
(4.25253 4.6488e-14 0)
(4.25253 3.38125e-14 0)
(4.25253 1.22454e-14 0)
(4.25253 1.43625e-14 0)
(4.25253 1.96401e-14 0)
(4.25253 5.13022e-14 0)
(4.25253 -1.89466e-14 0)
(4.25253 -3.14288e-14 0)
(4.25253 -1.34323e-14 0)
(4.25253 -7.52163e-14 0)
(4.25253 -1.28866e-13 0)
(4.25253 -1.35737e-13 0)
(4.25253 -3.78499e-14 0)
(4.25253 4.35742e-14 0)
(4.25253 1.04285e-14 0)
(4.25253 7.06889e-14 0)
(4.25253 9.72601e-14 0)
(4.25253 1.28095e-13 0)
(4.25253 1.21334e-13 0)
(4.25253 1.3261e-13 0)
(4.25253 8.24542e-14 0)
(4.25253 3.24189e-14 0)
(4.25253 3.43593e-14 0)
(4.25253 1.22154e-14 0)
(4.25253 -7.59031e-14 0)
(4.25253 -8.23142e-14 0)
(4.25253 -9.34028e-14 0)
(4.25253 -4.70881e-14 0)
(4.25253 -9.31261e-14 0)
(4.25253 -1.01091e-13 0)
(4.25253 -1.21854e-13 0)
(4.25253 -1.25745e-13 0)
(4.25253 -1.1598e-13 0)
(4.25253 -1.18821e-13 0)
(4.25253 -1.06135e-13 0)
(4.25253 -6.41177e-14 0)
(4.25253 -5.57167e-14 0)
(4.25253 5.47761e-15 0)
(4.25253 2.85716e-15 0)
(4.25253 2.22038e-15 0)
(4.25253 -6.53813e-14 0)
(4.25253 -1.1594e-13 0)
(4.25253 -1.09549e-13 0)
(4.25253 -7.80268e-14 0)
(4.25253 5.68765e-15 0)
(4.25253 4.42443e-14 0)
(4.25253 2.31307e-14 0)
(4.25253 1.91033e-14 0)
(4.25253 6.72449e-15 0)
(4.25253 5.68098e-15 0)
(4.25253 -2.01701e-14 0)
(4.25253 -3.76898e-14 0)
(4.25253 -2.17704e-14 0)
(4.25253 -2.13404e-14 0)
(4.25253 -3.50527e-14 0)
(4.25253 3.32191e-14 0)
(4.25253 1.1366e-13 0)
(4.25253 1.08479e-13 0)
(4.25253 9.52564e-14 0)
(4.25253 5.59663e-14 0)
(4.25253 -9.26627e-14 0)
(4.25253 -1.20167e-13 0)
(4.25253 -9.46197e-14 0)
(4.25253 -8.18908e-14 0)
(4.25253 -1.12766e-13 0)
(4.25253 -1.58124e-13 0)
(4.25253 -1.5373e-13 0)
(4.25253 -1.62168e-13 0)
(4.25253 -1.42658e-13 0)
(4.25253 -1.83268e-13 0)
(4.25253 -2.00518e-13 0)
(4.25253 -2.5001e-13 0)
(4.25253 -3.10537e-13 0)
(4.25253 -2.68396e-13 0)
(4.25253 -1.61061e-13 0)
(4.25253 -9.71534e-14 0)
(4.25253 -1.06443e-13 0)
(4.25253 9.53498e-15 0)
(4.25253 2.56711e-15 0)
(4.25253 -4.86251e-14 0)
(4.25253 -5.99837e-14 0)
(4.25253 -2.41942e-14 0)
(4.25253 -2.07369e-15 0)
(4.25253 -8.38145e-15 0)
(4.25253 -1.62028e-14 0)
(4.25253 -4.94652e-14 0)
(4.25253 1.08219e-14 0)
(4.25253 2.05235e-14 0)
(4.25253 -2.24906e-14 0)
(4.25253 -3.88734e-14 0)
(4.25253 -9.83103e-14 0)
(4.25253 -9.76002e-14 0)
(4.25253 -1.01444e-13 0)
(4.25253 -1.00057e-13 0)
(4.25253 -2.41375e-14 0)
(4.25253 4.93385e-14 0)
(4.25253 8.00038e-14 0)
(4.25253 9.37795e-14 0)
(4.25253 1.02684e-13 0)
(4.25253 -2.03669e-14 0)
(4.25253 -2.00178e-13 0)
(4.25253 -2.23755e-13 0)
(4.25253 -1.7349e-13 0)
(4.25253 -1.16884e-13 0)
(4.25253 -7.31226e-14 0)
(4.25253 -1.61348e-13 0)
(4.25253 -2.43985e-13 0)
(4.25253 -1.83085e-13 0)
(4.25253 -1.41338e-13 0)
(4.25253 -1.41031e-13 0)
(4.25253 -1.3248e-13 0)
(4.25253 -1.29719e-13 0)
(4.25253 -1.27585e-13 0)
(4.25253 -1.24141e-13 0)
(4.25253 -1.90823e-13 0)
(4.25253 -1.67306e-13 0)
(4.25253 -1.46468e-13 0)
(4.25253 3.45726e-15 0)
(4.25253 -6.29775e-15 0)
(4.25253 -4.97753e-15 0)
(4.25253 1.3619e-14 0)
(4.25253 1.1812e-14 0)
(4.25253 -1.70096e-14 0)
(4.25253 -6.3911e-14 0)
(4.25253 -8.28176e-14 0)
(4.25253 -5.71899e-14 0)
(4.25253 -5.67565e-14 0)
(4.25253 -8.03239e-14 0)
(4.25253 -6.26141e-14 0)
(4.25253 -5.80234e-14 0)
(4.25253 -7.09856e-14 0)
(4.25253 -7.84302e-14 0)
(4.25253 -8.78218e-14 0)
(4.25253 -6.06038e-14 0)
(4.25253 -2.83582e-14 0)
(4.25253 -5.02053e-14 0)
(4.25253 -1.44292e-14 0)
(4.25253 2.23905e-14 0)
(4.25253 -4.20739e-14 0)
(4.25253 -1.47405e-13 0)
(4.25253 -1.89709e-13 0)
(4.25253 -1.74093e-13 0)
(4.25253 -1.80781e-13 0)
(4.25253 -2.32317e-13 0)
(4.25253 -2.23352e-13 0)
(4.25253 -2.37208e-13 0)
(4.25253 -2.53424e-13 0)
(4.25253 -6.57714e-14 0)
(4.25253 -3.97635e-14 0)