/*--------------------------------*- C++ -*----------------------------------*\
| =========                 |                                                 |
| \\      /  F ield         | OpenFOAM: The Open Source CFD Toolbox           |
|  \\    /   O peration     | Version:  2206                                  |
|   \\  /    A nd           | Website:  www.openfoam.com                      |
|    \\/     M anipulation  |                                                 |
\*---------------------------------------------------------------------------*/
FoamFile
{
    version     2.0;
    format      ascii;
    arch        "LSB;label=32;scalar=64";
    class       volVectorField;
    location    "0.16";
    object      U;
}
// * * * * * * * * * * * * * * * * * * * * * * * * * * * * * * * * * * * * * //

dimensions      [0 1 -1 0 0 0 0];

internalField   nonuniform List<vector> 
75
(
(6.9596 3.20389e-15 0)
(6.9596 3.21305e-15 0)
(6.9596 6.41569e-15 0)
(6.9596 6.39277e-15 0)
(6.9596 6.25316e-15 0)
(6.9596 2.37541e-16 0)
(6.9596 3.6598e-15 0)
(6.9596 3.19388e-15 0)
(6.9596 2.80257e-15 0)
(6.9596 2.21307e-15 0)
(6.9596 -8.52397e-15 0)
(6.9596 -7.25625e-15 0)
(6.9596 -9.50122e-15 0)
(6.9596 -8.99114e-15 0)
(6.9596 -4.53072e-15 0)
(6.9596 4.15238e-15 0)
(6.9596 2.2058e-15 0)
(6.9596 -2.83549e-15 0)
(6.9596 -9.76419e-16 0)
(6.9596 3.24237e-15 0)
(6.9596 6.50779e-15 0)
(6.9596 6.45278e-15 0)
(6.9596 2.94801e-15 0)
(6.9596 5.59888e-15 0)
(6.9596 6.14398e-15 0)
(6.94035 -0.0310687 0)
(6.90234 0.0926003 0)
(6.86705 0.0481411 0)
(6.80768 0.245143 0)
(6.77061 0.248685 0)
(6.69106 0.490086 0)
(6.65592 0.532152 0)
(6.55348 0.795545 0)
(6.52278 0.865306 0)
(6.39266 1.15667 0)
(6.9596 5.26607e-06 0)
(6.9596 9.4642e-06 0)
(6.96028 -0.00240339 0)
(6.95942 0.000590337 0)
(6.97353 -0.0361601 0)
(6.9108 0.132404 0)
(6.89942 0.159022 0)
(6.71824 0.624043 0)
(6.69818 0.804032 0)
(6.34933 1.66113 0)
(6.9596 -3.18273e-10 0)
(6.9596 -1.13554e-09 0)
(6.95959 6.63962e-06 0)
(6.9596 -1.06548e-06 0)
(6.9596 1.36082e-06 0)
(6.9596 -5.64595e-06 0)
(6.96031 -0.00190228 0)
(6.95887 0.00201185 0)
(6.9618 -0.00378018 0)
(6.86218 0.34333 0)
(6.9596 4.75541e-14 0)
(6.9596 1.80179e-13 0)
(6.9596 1.74259e-07 0)
(6.9596 2.13498e-07 0)
(6.9596 2.82818e-07 0)
(6.9596 2.75011e-07 0)
(6.95967 -0.000157289 0)
(6.95962 -0.000140767 0)
(6.95969 -0.000268548 0)
(6.95735 0.0120284 0)
(6.9596 -5.5221e-15 0)
(6.9596 -1.54829e-13 0)
(6.9596 -1.48156e-09 0)
(6.9596 9.29751e-09 0)
(6.9596 3.72563e-08 0)
(6.9596 3.76013e-08 0)
(6.9596 1.05555e-06 0)
(6.9596 -1.11134e-05 0)
(6.95961 -3.55547e-05 0)
(6.95959 3.11393e-05 0)
)
;

boundaryField
{
    inlet
    {
        type            fixedValue;
        value           uniform (6.9596 0 0);
    }
    outlet
    {
        type            zeroGradient;
    }
    bottom
    {
        type            symmetryPlane;
    }
    top
    {
        type            symmetryPlane;
    }
    obstacle
    {
        type            slip;
    }
    defaultFaces
    {
        type            empty;
    }
}


// ************************************************************************* //
