/*--------------------------------*- C++ -*----------------------------------*\
| =========                 |                                                 |
| \\      /  F ield         | OpenFOAM: The Open Source CFD Toolbox           |
|  \\    /   O peration     | Version:  2206                                  |
|   \\  /    A nd           | Website:  www.openfoam.com                      |
|    \\/     M anipulation  |                                                 |
\*---------------------------------------------------------------------------*/
FoamFile
{
    version     2.0;
    format      ascii;
    arch        "LSB;label=32;scalar=64";
    class       volVectorField;
    location    "0.02";
    object      U;
}
// * * * * * * * * * * * * * * * * * * * * * * * * * * * * * * * * * * * * * //

dimensions      [0 1 -1 0 0 0 0];

internalField   nonuniform List<vector> 
75
(
(6.27273 -3.43393e-15 0)
(6.27273 -3.37225e-15 0)
(6.27273 4.9146e-15 0)
(6.27273 2.66896e-14 0)
(6.27273 8.05923e-14 0)
(6.27273 -1.00017e-17 0)
(6.27273 -3.18388e-15 0)
(6.27273 -3.58979e-15 0)
(6.27273 2.35166e-15 0)
(6.27273 5.25025e-15 0)
(6.27273 3.0126e-15 0)
(6.27273 2.69005e-15 0)
(6.27273 -5.24882e-15 0)
(6.27273 -4.28016e-14 0)
(6.27273 -7.0154e-14 0)
(6.27273 -3.14596e-15 0)
(6.27273 -6.00937e-16 0)
(6.27273 1.84032e-15 0)
(6.27273 1.19908e-14 0)
(6.27273 6.08945e-14 0)
(6.27273 -3.54686e-15 0)
(6.27273 -3.43309e-15 0)
(6.27273 -1.10727e-15 0)
(6.27273 1.86432e-14 0)
(6.27273 4.54133e-14 0)
(6.24805 0.00730093 0)
(6.20354 0.0475426 0)
(6.16238 0.124322 0)
(6.15182 0.201229 0)
(6.1676 0.258816 0)
(6.18384 0.302005 0)
(6.18803 0.339204 0)
(6.18043 0.376822 0)
(6.16359 0.419383 0)
(6.14918 0.484198 0)
(6.27273 4.19799e-06 0)
(6.27273 1.27815e-05 0)
(6.27298 -0.000754708 0)
(6.27142 0.00254998 0)
(6.26774 0.0144519 0)
(6.26555 0.033047 0)
(6.26055 0.0438045 0)
(6.25673 0.0862247 0)
(6.24707 0.0939921 0)
(6.23122 0.209653 0)
(6.27273 1.18216e-09 0)
(6.27273 1.92482e-08 0)
(6.27273 -1.58455e-07 0)
(6.27273 -4.93631e-08 0)
(6.27273 1.27099e-08 0)
(6.27273 7.87543e-08 0)
(6.27273 2.15527e-07 0)
(6.27273 1.33352e-06 0)
(6.27272 -6.03457e-06 0)
(6.27273 4.87247e-05 0)
(6.27273 3.48932e-11 0)
(6.27273 1.17947e-10 0)
(6.27273 2.33645e-10 0)
(6.27273 -1.18783e-09 0)
(6.27273 -1.03494e-09 0)
(6.27273 -1.31585e-09 0)
(6.27273 -3.94344e-09 0)
(6.27273 -2.67858e-09 0)
(6.27273 -1.9313e-07 0)
(6.27273 -4.13616e-08 0)
(6.27273 -1.01457e-14 0)
(6.27273 6.61871e-13 0)
(6.27273 5.10747e-12 0)
(6.27273 3.54859e-12 0)
(6.27273 -2.52803e-11 0)
(6.27273 -4.90051e-11 0)
(6.27273 -1.14938e-10 0)
(6.27273 -2.55101e-10 0)
(6.27273 2.32623e-10 0)
(6.27273 -2.57539e-09 0)
)
;

boundaryField
{
    inlet
    {
        type            fixedValue;
        value           uniform (6.27273 0 0);
    }
    outlet
    {
        type            zeroGradient;
    }
    bottom
    {
        type            symmetryPlane;
    }
    top
    {
        type            symmetryPlane;
    }
    obstacle
    {
        type            slip;
    }
    defaultFaces
    {
        type            empty;
    }
}


// ************************************************************************* //
