/*--------------------------------*- C++ -*----------------------------------*\
| =========                 |                                                 |
| \\      /  F ield         | OpenFOAM: The Open Source CFD Toolbox           |
|  \\    /   O peration     | Version:  2206                                  |
|   \\  /    A nd           | Website:  www.openfoam.com                      |
|    \\/     M anipulation  |                                                 |
\*---------------------------------------------------------------------------*/
FoamFile
{
    version     2.0;
    format      ascii;
    arch        "LSB;label=32;scalar=64";
    class       volScalarField;
    location    "0.08";
    object      T;
}
// * * * * * * * * * * * * * * * * * * * * * * * * * * * * * * * * * * * * * //

dimensions      [0 0 0 1 0 0 0];

internalField   nonuniform List<scalar> 
4800
(
1
1
1
1
1
1
1
1
1
1
1
1
1
1
1
1
1
1
1
1
1
1
1
1
1
1
1
1
1
1
1
1
1
1
1
1
1
1
1
1
1
1
1
1
1
1
1
1
1
1
1
1
1
1
1
1
1
1
1
1
1
1
1
1
1
1
1
1
1
1
1
1
1
1
1
1
1
1
1
1
1
1
1
1
1
1
1
1
1
1
1
1
1
1
1
1
1
1
1
1
1
1
1
1
1
1
1
1
1
1
1
1
1
1
1
1
1
1
1
1
1
1
1
1
1
1
1
1
1
1
1
1
1
1
1
1
1
1
1
1
1
1
1
1
1
1
1
1
1
1
1
1
1
1
1
1
1
1
1
1
1
1
1
1
1
1
1
1
1
1
1
1
1
1
1
1
1
1
1
1
1
1
1
1
1
1
1
1
1
1
1
1
1
1
1
1
1
1
1
1
1
1
1
1
1
1
1
1
1
1
1
1
1
1
1
1
1
1
1
1
1
1
1
1
1
1
1
1
1
1
1
1
1
1
1
1
1
1
1
1
1
1
1
1
1
1
1
1
1
1
1
1
1
1
1
1
1
1
1
1
1
1
1
1
1
1
1
1
1
1
1
1
1
1
1
1
1
1
1
1
1
1
1
1
1
1
1
1
1
1
1
1
1
1
1
1
1
1
1
1
1
1
1
1
1
1
1
1
1
1
1
1
1
1
1
1
1
1
1
1
1
1
1
1
1
1
1
1
1
1
1
1
1
1
1
1
1
1
1
1
1
1
1
1
1
1
1
1
1
1
1
1
1
1
1
1
1
1
1
1
1
1
1
1
1
1
1
1
1
1
1
1
1
1
1
1
1
1
1
1
1
1
1
1
1
1
1
1
1
1
1
1
1
1
1
1
1
1
1
1
1
1
1
1
1
1
1
1
1
1
1
1
1
1
1
1
1
1
1
1
1
1
1
1
1
1
1
1
1
1
1
1
1
1
1
1
1
1
1
1
1
1
1
1
1
1
1
1
1
1
1
1
1
1
1
1
1
1
1
1
1
1
1
1
1
1
1
1
1
1
1
1
1
1
1
1
1
1
1
1
1
1
1
1
1
1
1
1
1
1
1
1
1
1
1
1
1
1
1
1
1
1
1
1
1
1
1
1
1
1
1
1
1
1
1
1
1
1
1
1
1
1
1
1
1
1
1
1
1
1
1
1
1
1
1
1
1
1
1
1
1
1
1
1
1
1
1
1
1
1
1
1
1
1
1
1
1
1
1
1
1
1
1
1
1
1
1
1
1
1
1
1
1
1
1
1
1
1
1
1
1
1
1
1
1
1
1
1
1
1
1
1
1
1
1
1
1
1
1
1
1
1
1
1
1
1
1
1
1
1
1
1
1
1
1
1
1
1
1
1
1
1
1
1
1
1
1
1
1
1
1
1
1
1
1
1
1
1
1
1
1
1
1
1
1
1
1
1
1
1
1
1
1
1
1
1
1
1
1
1
1
1
1
1
1
1
1
1
1
1
1
1
1
1
1
1
1
1
1
1
1
1
1
1
1
1
1
1
1
1
1
1
1
1
1
1
1
1
1
1
1
1
1
1
1
1
1
1
1
1
1
1
1
1
1
1
1
1
1
1
1
1
1
1
1
1
1
1
1
1
1
1
1
1
1
1
1
1
1
1
1
1
1
1
1
1
1
1
1
1
1
1
1
1
1
1
1
1
1
1
1
1
1
1
1
1
1
1
1
1
1
1
1
1
1
1
1
1
1
1
1
1
1
1
1
1
1
1
1
1
1
1
1
1
1
1
1
1
1
1
1
1
1
1
1
1
1
1
1
1
1
1
1
1
1
1
1
1
1
1
1
1
1
1
1
1
1
1
1
1
1
1
1
1
1
1
1
1
1
1
1
1
1
1
1
1
1
1
1
1
1
1
1
1
1
1
1
1
1
1
1
1
1
1
1
1
1
1
1
1
1
1
1
1
1
1
1
1
1
1
1
1
1
1
1
1
1
1
1
1
1
1
1
1
1
1
1
1
1
1
1
1
1
1
1
1
1
1
1
1
1
1
1
1
1
1
1
1
1
1
1
1
1
1
1
1
1
1
1
1
1
1
1
1
1
1
1
1
1
1
1
1
1
1
1
1
1
1
1
1
1
1
1
1
1
1
1
1
1
1
1
1
1
1
1
1
1
1
1
1
1
1
1
1
1
1
1
1
1
1
1
1
1
1
1
1
1
1
1
1
1
1
1
1
1
1
1
1
1
1
1
1
1
1
1
1
1
1
1
1
1
1
1
1
1
1
1
1
1
1
1
1
1
1
1
1
1
1
1
1
1
1
1
1
1
1
1
1
1
1
1
1
1
1
1
1
1
1
1
1
1
1
1
1
1
1
1
1
1
1
1
1
1
1
1
1
1
1
1
1
1
1
1
1
1
1
1
1
1
1
1
1
1
1
1
1
1
1
1
1
1
1
1
1
1
1
1
1
1
1
1
1
1
1
1
1
1
1
1
1
1
1
1
1
1
1
1
1
1
1
1
1
1
1
1
1
1
1
1
1
1
1
1
1
1
1
1
1
1
1
1
1
1
1
1
1
1
1
1
1
1
1
1
1
1
1
1
1
1
1
1
1
1
1
1
1
1
1
1
1
1
1
1
1
1
1
1
1
1
1
1
1
1
1
1
1
1
1
1
1
1
1
1
1
1
1
1
1
1
1
1
1
1
1
1
1
1
1
1
1
1
1
1
1
1
1
1
1
1
1
1
1
1
1
1
1
1
1
1
1
1
1
1
1
1
1
1
1
1
1
1
1
1
1
1
1
1
1
1
1
1
1
1
1
1
1
1
1
1
1
1
1
1
1
1
1
1
1
1
1
1
1
1
1
1
1
1
1
1
1
1
1
1
1
1
1
1
1
1
1
1
1
1
1
1
1
1
1
1
1
1
1
1
1
1
1
1
1
1
1
1
1
1
1
1
1
1
1
1
1
1
1
1
1
1
1
1
1
1
1
1
1
1
1
1
1
1
1
1
1
1
1
1
1
1
1
1
1
1
1
1
1
1
1
1
1
1
1
1
1
1
1
1
1
1
1
1
1
1
1
1
1
1
1
1
1
1
1
1
1
1
1
1
1
1
1
1
1
1
1
1
1
1
1
1
1
1
1
1
1
1
1
1
1
1
1
1
1
1
1
1
1
1
1
1
1
1
1
1
1
1
1
1
1
1
1
1
1
1
1
1
1
1
1
1
1
1
1
1
1
1
1
1
1
1
1
1
1
1
1
1
1
1
1
1
1
1
1
1
1
1
1
1
1
1
1
1
1
1
1
1
1
1
1
1
1
1
1
1
1
1
1
1
1
1
1
1
1
1
1
1
1
1
1
1
1
1
1
1
1
1
1
1
1
1
1
1
1
1
1
1
1
1
1
1
1
1
1
1
1
1
1
1
1
1
1
1
1
1
1
1
1
1
1
1
1
1
1
1
1
1
1
1
1
1
1
1
1
1
1
1
1
1
1
1
1
1
1
1
1
1
1
1
1
1
1
1
1
1
1
1
1
1
1
1
1
1
1
1
1
1
1
1
1
1
1
1
1
1
1
1
1
1
1
1
1
1
1
1
1
1.07004
1.1631
1.25937
1.34723
1.44602
1.55875
1.64124
1.6979
1.76664
1.87736
1.94528
1.95992
1.98239
2.01704
2.02692
2.0183
1.99653
1.97197
1.94001
1.89552
1.83258
1.80411
1.79545
1.77905
1.75931
1.76072
1.76855
1.77821
1.783
1.78477
1.79001
1.80136
1.81488
1.81846
1.81658
1.81321
1.81381
1.81638
1.82007
1.82025
1.81978
1.81938
1.82293
1.82906
1.83238
1.83273
1.83161
1.8282
1.82346
1.8197
1.81866
1.81908
1.82146
1.82651
1.83221
1.83586
1.8374
1.8373
1.8356
1.83218
1.82664
1.82214
1.82051
1.82068
1.82259
1.82696
1.8337
1.8393
1.84148
1.84167
1.84087
1.8388
1.83687
1.83412
1.83071
1.82775
1.82513
1.82313
1.82244
1.8235
1
1
0.999697
1.00588
1.00456
1.0179
1.09571
1.18663
1.23575
1.31029
1.42888
1.51712
1.54891
1.6109
1.67147
1.70979
1.73987
1.77238
1.79692
1.82011
1.83832
1.85515
1.86995
1.86813
1.85522
1.84103
1.83712
1.83062
1.82321
1.80944
1.80516
1.80801
1.81346
1.8161
1.81617
1.81676
1.81969
1.82479
1.82776
1.82771
1.82718
1.82592
1.82583
1.82688
1.82946
1.83232
1.83338
1.83276
1.83183
1.83223
1.8325
1.83212
1.83104
1.82983
1.82952
1.83057
1.83379
1.83679
1.83732
1.83639
1.83524
1.83433
1.83292
1.83208
1.83227
1.83351
1.83429
1.83436
1.83512
1.83539
1.83576
1.83703
1.83805
1.8382
1.83805
1.8378
1.83705
1.83529
1.83235
1.829
1
1
1
1
1
1
1
1
1
0.999534
1.00118
1.02292
1.0524
1.12423
1.26596
1.39455
1.52089
1.65424
1.82145
1.88305
1.91738
1.95012
1.94985
1.94456
1.93452
1.9194
1.90453
1.88883
1.86491
1.83895
1.82922
1.83106
1.83524
1.83515
1.83441
1.83604
1.83926
1.84487
1.84731
1.8472
1.84652
1.84571
1.84319
1.84094
1.8408
1.84114
1.84302
1.84758
1.85114
1.85171
1.85154
1.85043
1.84777
1.84366
1.84003
1.83873
1.83855
1.8397
1.84434
1.84895
1.85013
1.84991
1.84866
1.84718
1.84616
1.84543
1.84397
1.8419
1.83891
1.83642
1.83564
1.83657
1.8414
1.84813
1.85099
1.8513
1.85101
1.84938
1.84617
1.83844
1
1
1
1
1
1
1
1
1
1
1
1
1
1
0.999984
0.999461
1.0172
1.09535
1.2605
1.50098
1.65189
1.77932
1.85818
1.88603
1.91129
1.90688
1.90274
1.90601
1.91076
1.90676
1.89856
1.89448
1.89021
1.88227
1.87013
1.86251
1.85966
1.85923
1.86089
1.86367
1.86469
1.86514
1.86443
1.86234
1.86094
1.85984
1.85947
1.8622
1.86943
1.87418
1.87488
1.87377
1.86987
1.86351
1.85765
1.85461
1.85299
1.85273
1.85448
1.85898
1.86298
1.86521
1.86606
1.86552
1.86356
1.86092
1.85721
1.85219
1.84753
1.84458
1.84414
1.84491
1.84751
1.85336
1.86013
1.86319
1.86336
1.86143
1.8575
1.84742
1
1
1
1
1
1
1
1
1
1
1
1
1
1
1
1
1
1
0.999554
1.00579
1.05018
1.14204
1.36355
1.56374
1.69834
1.79077
1.85482
1.93435
1.95667
1.95498
1.95425
1.94944
1.94093
1.92649
1.89886
1.87742
1.87453
1.87639
1.88072
1.88415
1.88502
1.88434
1.88175
1.87837
1.8759
1.87408
1.8746
1.87644
1.87996
1.8842
1.88752
1.88853
1.88721
1.88162
1.87658
1.87414
1.87199
1.87025
1.87009
1.871
1.87274
1.87421
1.87571
1.87717
1.87769
1.87647
1.87337
1.87059
1.86749
1.86356
1.86066
1.86056
1.86137
1.86302
1.8653
1.86799
1.86958
1.86948
1.86714
1.85605
1
1
1
1
1
1
1
1
1
1
1
1
1
1
1
1
1
1
1
1
1
0.999941
0.999704
1.01578
1.06617
1.23653
1.42289
1.59045
1.72622
1.80342
1.88382
1.91255
1.91358
1.9093
1.90246
1.89567
1.89376
1.89623
1.90025
1.90236
1.90257
1.90045
1.89606
1.89162
1.88618
1.88107
1.88058
1.88258
1.88524
1.88792
1.89032
1.89262
1.89425
1.89474
1.89472
1.89435
1.89262
1.88978
1.88661
1.88484
1.88363
1.88216
1.88079
1.88075
1.88248
1.88641
1.88853
1.88836
1.88678
1.88487
1.88185
1.8787
1.87766
1.87707
1.87593
1.87458
1.87329
1.87221
1.87067
1.865
1
1
1
1
1
1
1
1
1
1
1
1
1
1
1
1
1
1
1
1
1
1
1
1
1
0.999621
1.00168
1.02691
1.16455
1.32293
1.48485
1.64119
1.75447
1.86587
1.89016
1.90355
1.91302
1.91163
1.90871
1.90577
1.90289
1.89734
1.89098
1.88995
1.88988
1.88926
1.88657
1.88388
1.88366
1.88415
1.88517
1.88654
1.88937
1.89466
1.8998
1.90179
1.90257
1.90266
1.90149
1.89508
1.88754
1.88333
1.88169
1.88139
1.88225
1.8871
1.89455
1.8978
1.89808
1.8974
1.89625
1.89468
1.89126
1.88605
1.88232
1.88058
1.87933
1.87778
1.87636
1.87323
1
1
1
1
1
1
1
1
1
1
1
1
1
1
1
1
1
1
1
1
1
1
1
1
1
1
1
1
0.999998
0.999516
1.00931
1.09979
1.22606
1.40195
1.57922
1.71597
1.82924
1.84566
1.85963
1.86088
1.86071
1.86795
1.88329
1.8939
1.89862
1.8987
1.89537
1.89068
1.88783
1.88361
1.87898
1.87828
1.87945
1.88287
1.88933
1.89772
1.90195
1.90297
1.90349
1.90296
1.89788
1.8905
1.885
1.88369
1.88483
1.88744
1.89047
1.89471
1.89828
1.90016
1.90087
1.9004
1.89864
1.8966
1.89318
1.88938
1.88601
1.88402
1.88297
1.88054
1
1
1
1
1
1
1
1
1
1
1
1
1
1
1
1
1
1
1
1
1
1
1
1
1
1
1
1
1
1
1
1
0.999592
1.00407
1.06576
1.17482
1.35998
1.5439
1.67935
1.7716
1.80448
1.83983
1.8634
1.87852
1.88872
1.89107
1.88992
1.88664
1.88299
1.88173
1.87836
1.87183
1.86925
1.86992
1.87264
1.87891
1.88771
1.89489
1.89879
1.89908
1.89857
1.89786
1.89539
1.89129
1.88858
1.88801
1.88852
1.88959
1.89043
1.89121
1.89267
1.89528
1.89846
1.89882
1.89866
1.89776
1.89366
1.88859
1.88753
1.88524
1
1
1
1
1
1
1
1
1
1
1
1
1
1
1
1
1
1
1
1
1
1
1
1
1
1
1
1
1
1
1
1
1
1
1
0.999668
1.00304
1.05113
1.12703
1.29004
1.48888
1.65292
1.73862
1.77045
1.80984
1.838
1.85398
1.86505
1.87391
1.88392
1.88373
1.87924
1.87075
1.86407
1.86184
1.86303
1.86782
1.87343
1.8789
1.88545
1.89119
1.89354
1.89442
1.89581
1.89634
1.89499
1.89079
1.88472
1.88162
1.88143
1.88248
1.88518
1.88972
1.89513
1.89688
1.89682
1.89612
1.89316
1.89117
1.88758
1
1
1
1
1
1
1
1
1
1
1
1
1
1
1
1
1
1
1
1
1
1
1
1
1
1
1
1
1
1
1
1
1
1
1
1
1
1
0.99977
1.00132
1.03085
1.11042
1.29554
1.479
1.61182
1.7086
1.77083
1.81314
1.84342
1.86592
1.87099
1.87042
1.86936
1.86919
1.86637
1.86115
1.85814
1.85775
1.85845
1.86105
1.86617
1.87476
1.88363
1.88936
1.89251
1.89374
1.89341
1.88927
1.88046
1.87497
1.87466
1.87734
1.882
1.88791
1.89273
1.89407
1.8936
1.89072
1.88846
1.88553
1
1
1
1
1
1
1
1
1
1
1
1
1
1
1
1
1
1
1
1
1
1
1
1
1
1
1
1
1
1
1
1
1
1
1
1
1
1
1
1
1
0.999771
1.00277
1.02827
1.09623
1.29647
1.50701
1.63871
1.69575
1.75133
1.81005
1.84694
1.8596
1.86074
1.8651
1.86739
1.86479
1.85767
1.8501
1.84765
1.849
1.8531
1.85887
1.86794
1.87779
1.88283
1.88356
1.88229
1.88091
1.87899
1.87601
1.87497
1.87556
1.87991
1.88502
1.88562
1.88514
1.88262
1.87979
1.87846
1
1
1
1
1
1
1
1
1
1
1
1
1
1
1
1
1
1
1
1
1
1
1
1
1
1
1
1
1
1
1
1
1
1
1
1
1
1
1
1
1
1
1
1
0.999792
1.00435
1.03434
1.13702
1.32941
1.48107
1.62565
1.72125
1.77843
1.81433
1.84738
1.85716
1.85703
1.85606
1.85721
1.85632
1.85175
1.84522
1.84291
1.84495
1.84986
1.85607
1.86465
1.87186
1.87451
1.87496
1.87541
1.87691
1.87803
1.87858
1.87842
1.87781
1.87647
1.87337
1.86978
1.86731
1
1
1
1
1
1
1
1
1
1
1
1
1
1
1
1
1
1
1
1
1
1
1
1
1
1
1
1
1
1
1
1
1
1
1
1
1
1
1
1
1
1
1
1
1
1
0.999987
0.999917
1.00688
1.03356
1.17367
1.41209
1.58086
1.66272
1.72707
1.7936
1.83537
1.84888
1.8513
1.85676
1.86107
1.85716
1.84727
1.839
1.83759
1.84055
1.84578
1.85085
1.85645
1.8629
1.86761
1.87013
1.87188
1.87333
1.87547
1.87642
1.8752
1.87027
1.86332
1.85747
1
1
1
1
1
1
1
1
1
1
1
1
1
1
1
1
1
1
1
1
1
1
1
1
1
1
1
1
1
1
1
1
1
1
1
1
1
1
1
1
1
1
1
1
1
1
1
0.999999
1
0.999936
1.0008
1.01798
1.08951
1.27564
1.44343
1.59932
1.71222
1.77133
1.81021
1.84514
1.85135
1.8499
1.84852
1.84982
1.84855
1.84531
1.84219
1.84101
1.8423
1.84508
1.84807
1.85261
1.85828
1.86282
1.86625
1.86853
1.86858
1.86806
1.86674
1.8579
1
1
1
1
1
1
1
1
1
1
1
1
1
1
1
1
1
1
1
1
1
1
1
1
1
1
1
1
1
1
1
1
1
1
1
1
1
1
1
1
1
1
1
1
1
1
1
1
1
0.999999
0.999999
1
0.999963
1.00494
1.02663
1.14996
1.40491
1.6024
1.69061
1.74606
1.79155
1.82928
1.84659
1.84843
1.85028
1.8537
1.8542
1.85121
1.84507
1.83988
1.83901
1.8408
1.84414
1.8461
1.84801
1.85252
1.85822
1.8615
1.86126
1.85766
1
1
1
1
1
1
1
1
1
1
1
1
1
1
1
1
1
1
1
1
1
1
1
1
1
1
1
1
1
1
1
1
1
1
1
1
1
1
1
1
1
1
1
1
1
1
1
1
1
1
1
1
0.999999
1
0.99996
1.001
1.02153
1.12263
1.33645
1.5055
1.63931
1.73342
1.79006
1.82193
1.84195
1.84905
1.84985
1.85036
1.85073
1.85095
1.84897
1.84581
1.84246
1.83995
1.83946
1.8398
1.84083
1.84416
1.8519
1.85256
1
1
1
1
1
1
1
1
1
1
1
1
1
1
1
1
1
1
1
1
1
1
1
1
1
1
1
1
1
1
1
1
1
1
1
1
1
1
1
1
1
1
1
1
1
1
1
1
1
1
1
1
1
1
0.999999
0.999999
0.999972
1.00039
1.01238
1.05389
1.23189
1.49832
1.67344
1.74861
1.78264
1.80641
1.82359
1.83841
1.8479
1.85005
1.85237
1.85276
1.85261
1.85151
1.84605
1.83743
1.83409
1.83428
1.8352
1.83836
1
1
1
1
1
1
1
1
1
1
1
1
1
1
1
1
1
1
1
1
1
1
1
1
1
1
1
1
1
1
1
1
1
1
1
1
1
1
1
1
1
1
1
1
1
1
1
1
1
1
1
1
1
1
1
1
0.999999
0.999999
0.999995
1.00001
1.00566
1.05719
1.23117
1.48303
1.6743
1.75191
1.77768
1.7988
1.81128
1.8232
1.83831
1.84901
1.85289
1.85444
1.85431
1.8516
1.84561
1.83611
1.82987
1.82981
1
1
1
1
1
1
1
1
1
1
1
1
1
1
1
1
1
1
1
1
1
1
1
1
1
1
1
1
1
1
1
1
1
1
1
1
1
1
1
1
1
1
1
1
1
1
1
1
1
1
1
1
1
1
1
1
1
1
0.999999
0.999999
0.999992
1.00005
1.00511
1.05747
1.2115
1.45188
1.69409
1.79324
1.79559
1.80128
1.80955
1.81868
1.83039
1.84319
1.85104
1.85236
1.85058
1.846
1.84061
1.83066
1
1
1
1
1
1
1
1
1
1
1
1
1
1
1
1
1
1
1
1
1
1
1
1
1
1
1
1
1
1
1
1
1
1
1
1
1
1
1
1
1
1
1
1
1
1
1
1
1
1
1
1
1
1
1
1
1
1
1
1
0.999999
0.999999
0.999993
1.00006
1.00393
1.05607
1.24258
1.4998
1.69814
1.8184
1.8247
1.8171
1.81112
1.8156
1.82638
1.83708
1.84657
1.84908
1.84739
1.83707
1
1
1
1
1
1
1
1
1
1
1
1
1
1
1
1
1
1
1
1
1
1
1
1
1
1
1
1
1
1
1
1
1
1
1
1
1
1
1
1
1
1
1
1
1
1
1
1
1
1
1
1
1
1
1
1
1
1
1
1
1
1
0.999999
0.999999
0.999992
1.00013
1.00589
1.0798
1.27848
1.54371
1.75047
1.83291
1.83398
1.83053
1.81705
1.8183
1.83131
1.84105
1.84159
1.8365
1
1
1
1
1
1
1
1
1
1
1
1
1
1
1
1
1
1
1
1
1
1
1
1
1
1
1
1
1
1
1
1
1
1
1
1
1
1
1
1
1
1
1
1
1
1
1
1
1
1
1
1
1
1
1
1
1
1
1
1
1
1
1
1
0.999999
0.999999
0.999991
1.00034
1.01197
1.10839
1.35622
1.6247
1.80093
1.82942
1.82633
1.83337
1.83674
1.83834
1.83809
1.83187
1
1
1
1
1
1
1
1
1
1
1
1
1
1
1
1
1
1
1
1
1
1
1
1
1
1
1
1
1
1
1
1
1
1
1
1
1
1
1
1
1
1
1
1
1
1
1
1
1
1
1
1
1
1
1
1
1
1
1
1
1
1
1
1
1
1
0.999999
0.999999
0.999999
1.00075
1.02824
1.20186
1.45878
1.65288
1.78291
1.84659
1.85412
1.8533
1.85097
1.84131
1
1
1
1
1
1
1
1
1
1
1
1
1
1
1
1
1
1
1
1
1
1
1
1
1
1
1
1
1
1
1
1
1
1
1
1
1
1
1
1
1
1
1
1
1
1
1
1
1
1
1
1
1
1
1
1
1
1
1
1
1
1
1
1
1
1
1
1
1
0.999998
1.00008
1.00392
1.0557
1.29554
1.56236
1.72659
1.79441
1.8327
1.85107
1.84849
1
1
1
1
1
1
1
1
1
1
1
1
1
1
1
1
1
1
1
1
1
1
1
1
1
1
1
1
1
1
1
1
1
1
1
1
1
1
1
1
1
1
1
1
1
1
1
1
1
1
1
1
1
1
1
1
1
1
1
1
1
1
1
1
1
1
1
1
1
1
1
0.999995
1.0004
1.01614
1.1339
1.42607
1.67836
1.76575
1.80137
1.82947
1
1
1
1
1
1
1
1
1
1
1
1
1
1
1
1
1
1
1
1
1
1
1
1
1
1
1
1
1
1
1
1
1
1
1
1
1
1
1
1
1
1
1
1
1
1
1
1
1
1
1
1
1
1
1
1
1
1
1
1
1
1
1
1
1
1
1
1
1
1
1
1
0.999999
1.00002
1.00269
1.04778
1.2841
1.59922
1.73328
1.79959
1
1
1
1
1
1
1
1
1
1
1
1
1
1
1
1
1
1
1
1
1
1
1
1
1
1
1
1
1
1
1
1
1
1
1
1
1
1
1
1
1
1
1
1
1
1
1
1
1
1
1
1
1
1
1
1
1
1
1
1
1
1
1
1
1
1
1
1
1
1
1
1
1
1
0.999997
1.00041
1.01599
1.16451
1.45717
1.7378
1
1
1
1
1
1
1
1
1
1
1
1
1
1
1
1
1
1
1
1
1
1
1
1
1
1
1
1
1
1
1
1
1
1
1
1
1
1
1
1
1
1
1
1
1
1
1
1
1
1
1
1
1
1
1
1
1
1
1
1
1
1
1
1
1
1
1
1
1
1
1
1
1
1
1
0.999999
1.00004
1.00539
1.07211
1.52259
1
1
1
1
1
1
1
1
1
1
1
1
1
1
1
1
1
1
1
1
1
1
1
1
1
1
1
1
1
1
1
1
1
1
1
1
1
1
1
1
1
1
1
1
1
1
1
1
1
1
1
1
1
1
1
1
1
1
1
1
1
1
1
1
1
1
1
1
1
1
1
1
1
1
1
1
1
1.00001
1.00114
1.16095
1
1
1
1
1
1
1
1
1
1
1
1
1
1
1
1
1
1
1
1
1
1
1
1
1
1
1
1
1
1
1
1
1
1
1
1
1
1
1
1
1
1
1
1
1
1
1
1
1
1
1
1
1
1
1
1
1
1
1
1
1
1
1
1
1
1
1
1
1
1
1
1
1
1
1
1
1
1
1
1.01129
1
1
1
1
1
1
1
1
1
1
1
1
1
1
1
1
1
1
1
1
1
1
1
1
1
1
1
1
1
1
1
1
1
1
1
1
1
1
1
1
1
1
1
1
1
1
1
1
1
1
1
1
1
1
1
1
1
1
1
1
1
1
1
1
1
1
1
1
1
1
1
1
1
1
1
1
1
1
1
1.00021
1
1
1
1
1
1
1
1
1
1
1
1
1
1
1
1
1
1
1
1
1
1
1
1
1
1
1
1
1
1
1
1
1
1
1
1
1
1
1
1
1
1
1
1
1
1
1
1
1
1
1
1
1
1
1
1
1
1
1
1
1
1
1
1
1
1
1
1
1
1
1
1
1
1
1
1
1
1
1
1
1
1
1
1
1
1
1
1
1
1
1
1
1
1
1
1
1
1
1
1
1
1
1
1
1
1
1
1
1
1
1
1
1
1
1
1
1
1
1
1
1
1
1
1
1
1
1
1
1
1
1
1
1
1
1
1
1
1
1
1
1
1
1
1
1
1
1
1
1
1
1
1
1
1
1
1
1
1
1
1
1
1
1
1
1
1
1
1
1
1
1
1
1
1
1
1
1
1
1
1
1
1
1
1
1
1
1
1
1
1
1
1
1
1
1
1
1
1
1
1
1
1
1
1
1
1
1
1
1
1
1
1
1
1
1
1
1
1
1
1
1
1
1
1
1
1
1
1
1
1
1
1
1
1
1
1
1
1
1
1
1
1
1
1
1
1
1
1
1
1
1
1
1
1
1
1
1
1
1
1
1
1
1
1
1
1
1
1
1
1
1
1
1
1
1
1
1
1
1
1
1
1
1
1
1
1
1
1
1
1
1
1
1
1
1
1
1
1
1
1
1
1
1
1
1
1
1
1
1
1
1
1
1
1
1
1
1
1
1
1
1
1
1
1
1
1
1
1
1
1
1
1
1
1
1
1
1
1
1
1
1
1
1
1
1
1
1
1
1
1
1
1
1
1
1
1
1
1
1
1
1
1
1
1
1
1
1
1
1
1
1
1
1
1
1
1
1
1
1
1
1
1
1
1
1
1
1
1
1
1
1
1
1
1
1
1
1
1
1
1
1
1
1
1
1
1
1
1
1
1
1
1
1
1
1
1
1
1
1
1
1
1
1
1
1
1
1
1
1
1
1
1
1
1
1
1
1
1
1
1
1
1
1
1
1
1
1
1
1
1
1
1
1
1
1
1
1
1
1
1
1
1
1
1
1
1
1
1
1
1
1
1
1
1
1
1
1
1
1
1
1
1
1
1
1
1
1
1
1
1
1
1
1
1
1
1
1
1
1
1
1
1
1
1
1
1
1
1
1
1
1
1
1
1
1
1
1
1
1
1
1
1
1
1
1
1
1
1
1
1
1
1
1
1
1
1
1
1
1
1
1
1
1
1
1
1
1
1
1
1
1
1
1
1
1
1
1
1
1
1
1
1
1
1
1
1
1
1
1
1
1
1
1
1
1
1
1
1
1
1
1
1
1
1
1
1
1
1
1
1
1
1
1
1
1
1
1
1
1
1
1
1
1
1
1
1
1
1
1
1
1
1
1
1
1
1
1
1
1
1
1
1
1
1
1
1
1
1
1
1
1
1
1
1
1
1
1
1
1
1
)
;

boundaryField
{
    inlet
    {
        type            fixedValue;
        value           uniform 1;
    }
    outlet
    {
        type            zeroGradient;
    }
    bottom
    {
        type            symmetryPlane;
    }
    top
    {
        type            symmetryPlane;
    }
    obstacle
    {
        type            zeroGradient;
    }
    defaultFaces
    {
        type            empty;
    }
}


// ************************************************************************* //
