/*--------------------------------*- C++ -*----------------------------------*\
| =========                 |                                                 |
| \\      /  F ield         | OpenFOAM: The Open Source CFD Toolbox           |
|  \\    /   O peration     | Version:  2206                                  |
|   \\  /    A nd           | Website:  www.openfoam.com                      |
|    \\/     M anipulation  |                                                 |
\*---------------------------------------------------------------------------*/
FoamFile
{
    version     2.0;
    format      ascii;
    arch        "LSB;label=32;scalar=64";
    class       volScalarField;
    location    "0.16";
    object      p;
}
// * * * * * * * * * * * * * * * * * * * * * * * * * * * * * * * * * * * * * //

dimensions      [1 -1 -2 0 0 0 0];

internalField   nonuniform List<scalar> 
4800
(
1
1
1
1
1
1
1
1
1
1
1
1
1
1
1
1
1
1
1
1
1
1
1
1
1
1
1
1
1
1
1
1
1
1
1
1
1
1
1
1
1
1
1
1
1
1
1
1
1
1
1
1
1
1
1
1
1
1
1
1
1
1
1
1
1
1
1
1
1
1
1
1
1
1
1
1
1
1
1
1
1
1
1
1
1
1
1
1
1
1
1
1
1
1
1
1
1
1
1
1
1
1
1
1
1
1
1
1
1
1
1
1
1
1
1
1
1
1
1
1
1
1
1
1
1
1
1
1
1
1
1
1
1
1
1
1
1
1
1
1
1
1
1
1
1
1
1
1
1
1
1
1
1
1
1
1
1
1
1
1
1
1
1
1
1
1
1
1
1
1
1
1
1
1
1
1
1
1
1
1
1
1
1
1
1
1
1
1
1
1
1
1
1
1
1
1
1
1
1
1
1
1
1
1
1
1
1
1
1
1
1
1
1
1
1
1
1
1
1
1
1
1
1
1
1
1
1
1
1
1
1
1
1
1
1
1
1
1
1
1
1
1
1
1
1
1
1
1
1
1
1
1
1
1
1
1
1
1
1
1
1
1
1
1
1
1
1
1
1
1
1
1
1
1
1
1
1
1
1
1
1
1
1
1
1
1
1
1
1
1
1
1
1
1
1
1
1
1
1
1
1
1
1
1
1
1
1
1
1
1
1
1
1
1
1
1
1
1
1
1
1
1
1
1
1
1
1
1
1
1
1
1
1
1
1
1
1
1
1
1
1
1
1
1
1
1
1
1
1
1
1
1
1
1
1
1
1
1
1
1
1
1
1
1
1
1
1
1
1
1
1
1
1
1
1
1
1
1
1
1
1
1
1
1
1
1
1
1
1
1
1
1
1
1
1
1
1
1
1
1
1
1
1
1
1
1
1
1
1
1
1
1
1
1
1
1
1
1
1
1
1
1
1
1
1
1
1
1
1
1
1
1
1
1
1
1
1
1
1
1
1
1
1
1
1
1
1
1
1
1
1
1
1
1
1
1
1
1
1
1
1
1
1
1
1
1
1
1
1
1
1
1
1
1
1
1
1
1
1
1
1
1
1
1
1
1
1
1
1
1
1
1
1
1
1
1
1
1
1
1
1
1
1
1
1
1
1
1
1
1
1
1
1
1
1
1
1
1
1
1
1
1
1
1
1
1
1
1
1
1
1
1
1
1
1
1
1
1
1
1
1
1
1
1
1
1
1
1
1
1
1
1
1
1
1
1
1
1
1
1
1
1
1
1
1
1
1
1
1
1
1
1
1
1
1
1
1
1
1
1
1
1
1
1
1
1
1
1
1
1
1
1
1
1
1
1
1
1
1
1
1
1
1
1
1
1
1
1
1
1
1
1
1
1
1
1
1
1
1
1
1
1
1
1
1
1
1
1
1
1
1
1
1
1
1
1
1
1
1
1
1
1
1
1
1
1
1
1
1
1
1
1
1
1
1
1
1
1
1
1
1
1
1
1
1
1
1
1
1
1
1
1
1
1
1
1
1
1
1
1
1
1
1
1
1
1
1
1
1
1
1
1
1
1
1
1
1
1
1
1
1
1
1
1
1
1
1
1
1
1
1
1
1
1
1
1
1
1
1
1
1
1
1
1
1
1
1
1
1
1
1
1
1
1
1
1
1
1
1
1
1
1
1
1
1
1
1
1
1
1
1
1
1
1
1
1
1
1
1
1
1
1
1
1
1
1
1
1
1
1
1
1
1
1
1
1
1
1
1
1
1
1
1
1
1
1
1
1
1
1
1
1
1
1
1
1
1
1
1
1
1
1
1
1
1
1
1
1
1
1
1
1
1
1
1
1
1
1
1
1
1
1
1
1
1
1
1
1
1
1
1
1
1
1
1
1
1
1
1
1
1
1
1
1
1
1
1
1
1
1
1
1
1
1
1
1
1
1
1
1
1
1
1
1
1
1
1
1
1
1
1
1
1
1
1
1
1
1
1
1
1
1
1
1
1
1
1
1
1
1
1
1
1
1
1
1
1
1
1
1
1
1
1
1
1
1
1
1
1
1
1
1
1
1
1
1
1
1
1
1
1
1
1
1
1
1
1
1
1
1
1
1
1
1
1
1
1
1
1
1
1
1
1
1
1
1
1
1
1
1
1
1
1
1
1
1
1
1
1
1
1
1
1
1
1
1
1
1
1
1
1
1
1
1
1
1
1
1
1
1
1
1
1
1
1
1
1
1
1
1
1
1
1
1
1
1
1
1
1
1
1
1
1
1
1
1
1
1
1
1
1
1
1
1
1
1
1
1
1
1
1
1
1
1
1
1
1
1
1
1
1
1
1
1
1
1
1
1
1
1
1
1
1
1
1
1
1
1
1
1
1
1
1
1
1
1
1
1
1
1
1
1
1
1
1
1
1
1
1
1
1
1
1
1
1
1
1
1
1
1
1
1
1
1
1
1
1
1
1
1
1
1
1
1
1
1
1
1
1
1
1
1
1
1
1
1
1
1
1
1
1
1
1
1
1
1
1
1
1
1
1
1
1
1
1
1
1
1
1
1
1
1
1
1
1
1
1
1
1
1
1
1
1
1
1
1
1
1
1
1
1
1
1
1
1
1
1
1
1
1
1
1
1
1
1
1
1
1
1
1
1
1
1
1
1
1
1
1
1
1
1
1
1
1
1
1
1
1
1
1
1
1
1
1
1
1
1
1
1
1
1
1
1
1
1
1
1
1
1
1
1
1
1
1
1
1
1
1
1
1
1
1
1
1
1
1
1
1
1
1
1
1
1
1
1
1
1
1
1
1
1
1
1
1
1
1
1
1
1
1
1
1
1
1
1
1
1
1
1
1
1
1
1
1
1
1
1
1
1
1
1
1
1
1
1
1
1
1
1
1
1
1
1
1
1
1
1
1
1
1
1
1
1
1
1
1
1
1
1
1
1
1
1
1
1
1
1
1
1
1
1
1
1
1
1
1
1
1
1
1
1
1
1
1
1
1
1
1
1
1
1
1
1
1
1
1
1
1
1
1
1
1
1
1
1
1
1
1
1
1
1
1
1
1
1
1
1
1
1
1
1
1
1
1
1
1
1
1
1
1
1
1
1
1
1
1
1
1
1
1
1
1
1
1
1
1
1
1
1
1
1
1
1
1
1
1
1
1
1
1
1
1
1
1
1
1
1
1
1
1
1
1
1
1
1
1
1
1
1
1
1
1
1
1
1
1
1
1
1
1
1
1
1
1
1
1
1
1
1
1
1
1
1
1
1
1
1
1
1
1
1
1
1
1
1
1
1
1
1
1
1
1
1
1
1
1
1
1
1
1
1
1
1
1
1
1
1
1
1
1
1
1
1
1
1
1
1
1
1
1
1
1
1
1
1
1
1
1
1
1
1
1
1
1
1
1
1
1
1
1
1
1
1
1
1
1
1
1
1
1
1
1
1
1
1
1
1
1
1
1
1
1
1
1
1
1
1
1
1
1
1
1
1
1
1
1
1
1
1
1
1
1
1
1
1
1
1
1
1
1
1
1
1
1
1
1
1
1
1
1
1
1
1
1
1
1
1
1
1
1
1
1
1
1
1
1
1
1
1
1
1
1
1
1
1
1
1
1
1
1
1.27338
1.70304
2.17302
2.67437
3.22372
3.61361
3.99697
4.25421
4.36048
4.28785
4.08373
3.80374
3.51037
3.31348
3.20056
3.12002
3.09198
3.10058
3.12917
3.16367
3.18223
3.19405
3.20593
3.21935
3.23569
3.25386
3.26527
3.26722
3.26722
3.26477
3.25767
3.25152
3.24926
3.24765
3.24699
3.24713
3.2479
3.24868
3.24704
3.24387
3.24277
3.24338
3.24602
3.2498
3.25267
3.25433
3.25469
3.25484
3.25554
3.25598
3.2563
3.25697
3.25876
3.26082
3.26095
3.26055
3.25975
3.25807
3.25607
3.25561
3.2557
3.2562
3.25757
3.25965
3.26099
3.26107
3.26078
3.2599
3.25812
3.25657
3.25643
3.25667
3.2572
3.25832
3.25916
3.25927
3.25895
3.25751
3.25528
3.2478
1.00335
1.02593
1.09618
1.21269
1.4052
1.70334
2.03895
2.40628
2.78979
3.0928
3.19016
3.40332
3.47351
3.44105
3.39976
3.35771
3.30109
3.25855
3.23436
3.2025
3.17582
3.17645
3.18497
3.2008
3.22191
3.23875
3.24699
3.24642
3.24478
3.24206
3.24175
3.2436
3.24713
3.25353
3.25808
3.25887
3.25934
3.25915
3.25496
3.24988
3.2488
3.24975
3.25291
3.2556
3.25591
3.25535
3.25407
3.25251
3.2518
3.25187
3.25233
3.25322
3.25471
3.25644
3.25698
3.25683
3.25627
3.25483
3.25328
3.2531
3.25338
3.25426
3.25602
3.25838
3.25974
3.2598
3.2596
3.25901
3.25772
3.25651
3.25652
3.25695
3.258
3.25938
3.25988
3.25983
3.25931
3.25769
3.25536
3.24758
0.999999
0.999998
1.00019
1.00123
1.00564
1.02649
1.08052
1.23585
1.5089
2.02762
2.67056
3.19314
3.50629
3.58373
3.60229
3.57479
3.51296
3.39721
3.28603
3.20832
3.1742
3.17692
3.19075
3.20944
3.22587
3.23028
3.22741
3.22122
3.21888
3.22271
3.22912
3.23772
3.24864
3.25909
3.26249
3.26285
3.26294
3.2621
3.2577
3.25294
3.25232
3.25346
3.257
3.26017
3.2608
3.26031
3.25885
3.25607
3.2529
3.252
3.25216
3.2526
3.25375
3.25547
3.25592
3.25587
3.25538
3.25367
3.25154
3.25098
3.25114
3.25162
3.25297
3.25541
3.25675
3.25684
3.25674
3.25648
3.25575
3.25522
3.25548
3.25624
3.25761
3.2591
3.25944
3.25931
3.25879
3.25721
3.25494
3.24686
1
1
1
1
0.999998
1.00001
1.00012
1.00152
1.00922
1.05875
1.2833
1.69103
2.36168
2.84561
3.27804
3.39494
3.3812
3.40158
3.41206
3.38146
3.3136
3.28
3.25365
3.23583
3.22147
3.20711
3.20066
3.20239
3.21065
3.21922
3.22697
3.2344
3.24422
3.24953
3.25087
3.25077
3.25052
3.25092
3.2502
3.25074
3.25172
3.25393
3.25841
3.26258
3.26345
3.2631
3.2618
3.25805
3.25491
3.25434
3.25428
3.25494
3.25709
3.25906
3.2593
3.25918
3.2585
3.25648
3.25368
3.25247
3.25243
3.25262
3.25343
3.25526
3.25631
3.25639
3.25614
3.25568
3.25498
3.25479
3.25504
3.25573
3.25708
3.25834
3.25834
3.258
3.25737
3.25574
3.25339
3.24511
1
1
1
1
1
1
1
1
0.999996
1.00003
1.0022
1.01909
1.13612
1.46931
1.98243
2.61431
3.01564
3.38945
3.47743
3.46759
3.43129
3.3862
3.31778
3.24392
3.22724
3.21888
3.22042
3.22017
3.21884
3.22565
3.2299
3.23416
3.24188
3.2481
3.24922
3.24823
3.24598
3.2432
3.24187
3.24198
3.24241
3.24398
3.24743
3.25217
3.25448
3.25498
3.25504
3.25353
3.25221
3.25204
3.25283
3.25546
3.25964
3.26234
3.26296
3.26297
3.26235
3.26066
3.25787
3.25631
3.25619
3.25627
3.25666
3.25799
3.25888
3.25875
3.25826
3.25745
3.25662
3.25648
3.2566
3.2572
3.2586
3.25942
3.25903
3.25842
3.25746
3.25545
3.25288
3.24443
1
1
1
1
1
1
1
1
1
1
1
0.999992
1.00046
1.0084
1.05231
1.27664
1.71736
2.32121
2.80995
3.08557
3.28299
3.27292
3.27847
3.30185
3.30509
3.287
3.27538
3.25688
3.24261
3.23334
3.2292
3.23054
3.23646
3.24815
3.25541
3.25544
3.25236
3.24849
3.2461
3.24461
3.2427
3.2432
3.24585
3.24896
3.24947
3.2499
3.25036
3.24964
3.24841
3.24773
3.24816
3.25095
3.25589
3.25918
3.26046
3.26086
3.26043
3.25941
3.25778
3.25732
3.2576
3.25816
3.25892
3.26026
3.26104
3.26076
3.26024
3.25937
3.25863
3.25848
3.25848
3.25912
3.26073
3.26114
3.26048
3.25959
3.25797
3.25517
3.25237
3.24394
1
1
1
1
1
1
1
1
1
1
1
1
1
0.999995
1.00005
1.00267
1.0291
1.13359
1.50116
2.01014
2.65507
2.97055
3.19898
3.33778
3.33378
3.32421
3.28009
3.2473
3.22429
3.22419
3.22956
3.23348
3.23936
3.25031
3.26182
3.26518
3.26349
3.25551
3.24999
3.25041
3.25236
3.25413
3.25487
3.25352
3.25222
3.25145
3.25134
3.25027
3.249
3.24815
3.24787
3.24958
3.25389
3.25649
3.2574
3.25757
3.25686
3.2555
3.2537
3.25335
3.25376
3.25477
3.25614
3.25791
3.25888
3.25859
3.25822
3.25779
3.25752
3.25743
3.25746
3.25837
3.2602
3.26084
3.26031
3.25933
3.2573
3.25398
3.25089
3.24227
1
1
1
1
1
1
1
1
1
1
1
1
1
1
0.999999
0.999998
1.00001
1.00062
1.01354
1.07843
1.30091
1.81654
2.36377
2.92844
3.07475
3.17645
3.19616
3.17785
3.19684
3.2271
3.2375
3.23435
3.22893
3.23274
3.24244
3.24989
3.252
3.25102
3.25301
3.25859
3.26247
3.26578
3.26822
3.26665
3.26437
3.26106
3.25599
3.25231
3.25045
3.24956
3.24933
3.25058
3.25403
3.25525
3.25538
3.25549
3.25421
3.25193
3.25049
3.25038
3.25101
3.2527
3.2549
3.25688
3.25738
3.25677
3.25621
3.25589
3.25578
3.25564
3.25568
3.25664
3.25835
3.25941
3.25929
3.2584
3.25638
3.25312
3.24981
3.2407
1
1
1
1
1
1
1
1
1
1
1
1
1
1
1
1
1
1
0.999999
1.00025
1.00413
1.05204
1.19431
1.58554
2.15289
2.76506
3.10876
3.1637
3.2196
3.2324
3.22081
3.22686
3.21464
3.20193
3.20327
3.20779
3.21616
3.22554
3.23172
3.24023
3.24962
3.25888
3.26656
3.26727
3.26611
3.26435
3.26093
3.25863
3.25795
3.25809
3.25866
3.26006
3.26057
3.26009
3.25957
3.2576
3.25453
3.252
3.25071
3.25068
3.25175
3.25405
3.25698
3.25855
3.25832
3.25748
3.25622
3.25548
3.25535
3.25519
3.25518
3.25601
3.25771
3.25891
3.25895
3.25827
3.25652
3.25346
3.24986
3.23985
1
1
1
1
1
1
1
1
1
1
1
1
1
1
1
1
1
1
1
1
0.999996
1.00013
1.00181
1.02319
1.14561
1.44463
1.99964
2.54208
3.01403
3.17898
3.21621
3.2563
3.23504
3.21689
3.21659
3.20842
3.20357
3.20712
3.21296
3.21958
3.22763
3.23619
3.24483
3.25091
3.2522
3.25178
3.25007
3.25024
3.25209
3.25438
3.25684
3.26018
3.26232
3.2626
3.26222
3.26122
3.25923
3.25732
3.25549
3.25455
3.25523
3.25704
3.25974
3.2608
3.2602
3.25889
3.2569
3.25527
3.25471
3.25439
3.25417
3.25478
3.25654
3.25815
3.25855
3.25827
3.25729
3.25496
3.25156
3.24088
1
1
1
1
1
1
1
1
1
1
1
1
1
1
1
1
1
1
1
1
1
1
0.999998
1.00003
1.00122
1.01155
1.10671
1.36181
1.82845
2.36554
2.88311
3.1591
3.22162
3.26276
3.28364
3.2716
3.24747
3.23239
3.22576
3.22507
3.22679
3.22676
3.23103
3.23814
3.23961
3.23925
3.24018
3.24141
3.24214
3.24408
3.24809
3.25318
3.25663
3.25787
3.2581
3.25814
3.25745
3.25614
3.25538
3.25559
3.25675
3.25906
3.2625
3.26383
3.26325
3.26204
3.25984
3.2563
3.25407
3.25378
3.25365
3.25404
3.25564
3.25705
3.25766
3.2578
3.25722
3.25523
3.25187
3.24111
1
1
1
1
1
1
1
1
1
1
1
1
1
1
1
1
1
1
1
1
1
1
1
1
1
1
1.00083
1.0083
1.06027
1.29271
1.72315
2.28393
2.73563
3.09387
3.20943
3.25383
3.27132
3.2658
3.26105
3.26417
3.26474
3.2593
3.25865
3.25825
3.24992
3.24353
3.24346
3.24298
3.24105
3.24056
3.2436
3.24907
3.25224
3.25346
3.25348
3.25262
3.25147
3.2505
3.25072
3.25193
3.25387
3.25714
3.26109
3.26254
3.26225
3.26163
3.26037
3.25754
3.2554
3.25521
3.25518
3.25515
3.25566
3.25656
3.25709
3.25712
3.25653
3.25479
3.25185
3.24145
1
1
1
1
1
1
1
1
1
1
1
1
1
1
1
1
1
1
1
1
1
1
1
1
1
1
1
1
1.00029
1.0064
1.04241
1.25118
1.68496
2.26303
2.66226
2.98893
3.18495
3.23019
3.23923
3.26312
3.27498
3.27471
3.2755
3.27227
3.26452
3.26424
3.26592
3.26593
3.26219
3.25854
3.2584
3.25897
3.25753
3.2566
3.25494
3.25122
3.24844
3.24755
3.24733
3.2483
3.25057
3.25386
3.25686
3.25845
3.2588
3.25884
3.25822
3.2561
3.25464
3.25488
3.25526
3.25611
3.25704
3.25687
3.25634
3.25624
3.25509
3.25286
3.25018
3.24026
1
1
1
1
1
1
1
1
1
1
1
1
1
1
1
1
1
1
1
1
1
1
1
1
1
1
1
1
1
1
1.00017
1.00579
1.04166
1.2012
1.6318
2.24491
2.7131
2.9544
3.08535
3.16609
3.2156
3.22721
3.24481
3.25507
3.25883
3.25869
3.26114
3.26352
3.2643
3.26447
3.26535
3.26542
3.26423
3.26327
3.26213
3.25818
3.25489
3.25367
3.25255
3.25201
3.25395
3.25579
3.25646
3.25689
3.25706
3.25681
3.25572
3.25346
3.25287
3.25354
3.25432
3.25632
3.25821
3.25847
3.25756
3.25572
3.25368
3.25113
3.24802
3.23782
1
1
1
1
1
1
1
1
1
1
1
1
1
1
1
1
1
1
1
1
1
1
1
1
1
1
1
1
1
1
1
1
1.00016
1.0038
1.04143
1.18611
1.61588
2.23154
2.84357
3.00702
3.11135
3.1682
3.18631
3.20629
3.21322
3.21701
3.22161
3.22965
3.24125
3.25146
3.25609
3.25934
3.25952
3.25779
3.25707
3.25485
3.25379
3.25473
3.25617
3.25598
3.25714
3.25815
3.25854
3.25894
3.25941
3.25906
3.25661
3.2535
3.25328
3.25412
3.25505
3.25707
3.25884
3.25981
3.26041
3.2587
3.25432
3.24939
3.24571
3.23561
1
1
1
1
1
1
1
1
1
1
1
1
1
1
1
1
1
1
1
1
1
1
1
1
1
1
1
1
1
1
1
1
1
1
1.0002
1.00325
1.04525
1.2059
1.65287
2.26247
2.86295
3.14172
3.18336
3.22162
3.21494
3.21161
3.21367
3.21511
3.22337
3.23376
3.2378
3.24011
3.24139
3.24166
3.24324
3.24732
3.25029
3.25201
3.25294
3.25362
3.25495
3.2563
3.25722
3.25822
3.25951
3.25971
3.25661
3.2536
3.2536
3.2544
3.25533
3.25685
3.25835
3.2603
3.26225
3.26204
3.25816
3.25204
3.24665
3.23474
1
1
1
1
1
1
1
1
1
1
1
1
1
1
1
1
1
1
1
1
1
1
1
1
1
1
1
1
1
1
1
1
1
1
1
1
1.0003
1.00425
1.05105
1.25036
1.71324
2.34081
2.89126
3.16103
3.24143
3.25828
3.27372
3.26655
3.25599
3.2519
3.25068
3.24927
3.24617
3.24387
3.24234
3.24383
3.24603
3.24723
3.24888
3.25142
3.25364
3.25535
3.25654
3.25712
3.25774
3.25742
3.25518
3.25436
3.25478
3.25513
3.25545
3.25573
3.2567
3.25871
3.26077
3.26093
3.25815
3.25356
3.24857
3.23591
1
1
1
1
1
1
1
1
1
1
1
1
1
1
1
1
1
1
1
1
1
1
1
1
1
1
1
1
1
1
1
1
1
1
1
1
1
1
1.00043
1.00633
1.06072
1.32306
1.8377
2.43069
2.90605
3.15318
3.24356
3.27832
3.28305
3.27701
3.27415
3.27459
3.27233
3.2681
3.2632
3.2593
3.25662
3.25307
3.25287
3.25449
3.25501
3.25488
3.25493
3.25491
3.25508
3.25497
3.25513
3.25642
3.25722
3.25743
3.25729
3.25642
3.25572
3.25636
3.25755
3.25771
3.25595
3.25265
3.24862
3.23649
1
1
1
1
1
1
1
1
1
1
1
1
1
1
1
1
1
1
1
1
1
1
1
1
1
1
1
1
1
1
1
1
1
1
1
1
1
1
1
1.00001
1.00063
1.01126
1.08568
1.42143
2.04083
2.60348
2.92716
3.12318
3.22359
3.23501
3.2422
3.25914
3.26339
3.26083
3.26084
3.26474
3.26648
3.26298
3.25972
3.25995
3.25957
3.25875
3.25724
3.25484
3.25271
3.25209
3.25295
3.25526
3.25915
3.26043
3.26074
3.26013
3.2581
3.25629
3.2556
3.25525
3.25406
3.25132
3.24787
3.23665
1
1
1
1
1
1
1
1
1
1
1
1
1
1
1
1
1
1
1
1
1
1
1
1
1
1
1
1
1
1
1
1
1
1
1
1
1
1
1
1
0.999999
1.00003
1.00127
1.0228
1.14083
1.56096
2.23719
2.87032
3.06847
3.15056
3.17291
3.20971
3.21719
3.2145
3.22021
3.23632
3.24975
3.25528
3.25715
3.25739
3.25723
3.25685
3.25654
3.25484
3.25069
3.24847
3.24889
3.25144
3.25697
3.26057
3.26197
3.26257
3.26164
3.25923
3.25679
3.25437
3.25232
3.24979
3.24696
3.23678
1
1
1
1
1
1
1
1
1
1
1
1
1
1
1
1
1
1
1
1
1
1
1
1
1
1
1
1
1
1
1
1
1
1
1
1
1
1
1
1
1
1
1
1.00012
1.00299
1.0454
1.2402
1.77441
2.5002
3.01851
3.17508
3.23671
3.22283
3.21118
3.21984
3.23056
3.23804
3.24459
3.2496
3.2524
3.2531
3.25287
3.25308
3.25235
3.24806
3.24438
3.24411
3.2452
3.25038
3.25907
3.2629
3.26388
3.26317
3.26117
3.25752
3.25321
3.25073
3.24841
3.24594
3.23636
1
1
1
1
1
1
1
1
1
1
1
1
1
1
1
1
1
1
1
1
1
1
1
1
1
1
1
1
1
1
1
1
1
1
1
1
1
1
1
1
1
1
1
1
1
1.00047
1.00816
1.09498
1.41459
2.07277
2.74916
3.11524
3.24482
3.25863
3.27332
3.27167
3.26489
3.26093
3.26235
3.26222
3.25911
3.25524
3.2545
3.25457
3.25243
3.24741
3.24417
3.24419
3.24783
3.25447
3.25864
3.26067
3.26201
3.26046
3.25539
3.25103
3.24936
3.24757
3.2454
3.23613
1
1
1
1
1
1
1
1
1
1
1
1
1
1
1
1
1
1
1
1
1
1
1
1
1
1
1
1
1
1
1
1
1
1
1
1
1
1
1
1
1
1
1
1
1
1
1.00003
1.00177
1.02353
1.21834
1.71398
2.36936
2.88968
3.15079
3.25326
3.26067
3.27079
3.27445
3.27442
3.271
3.26188
3.25717
3.2576
3.26047
3.26272
3.26151
3.25548
3.25191
3.25186
3.25485
3.25794
3.25926
3.25974
3.25776
3.25325
3.25072
3.2495
3.24791
3.24595
3.23693
1
1
1
1
1
1
1
1
1
1
1
1
1
1
1
1
1
1
1
1
1
1
1
1
1
1
1
1
1
1
1
1
1
1
1
1
1
1
1
1
1
1
1
1
1
1
1
1
1.00021
1.00808
1.06831
1.39655
2.11649
2.7504
3.01156
3.14348
3.21616
3.23168
3.24374
3.24801
3.24356
3.2375
3.23783
3.24702
3.26061
3.26379
3.26002
3.25645
3.25627
3.25785
3.25886
3.25955
3.25936
3.25667
3.25375
3.25234
3.25135
3.24962
3.24742
3.23782
1
1
1
1
1
1
1
1
1
1
1
1
1
1
1
1
1
1
1
1
1
1
1
1
1
1
1
1
1
1
1
1
1
1
1
1
1
1
1
1
1
1
1
1
1
1
1
1
1
1.00003
1.00117
1.02843
1.19494
1.7558
2.49255
3.06092
3.18774
3.21855
3.23297
3.23743
3.23478
3.22465
3.22097
3.22957
3.24179
3.24977
3.25242
3.25206
3.25351
3.25676
3.25865
3.25953
3.258
3.25613
3.25538
3.25477
3.2541
3.25229
3.24889
3.23732
1
1
1
1
1
1
1
1
1
1
1
1
1
1
1
1
1
1
1
1
1
1
1
1
1
1
1
1
1
1
1
1
1
1
1
1
1
1
1
1
1
1
1
1
1
1
1
1
1
1
1
1.00032
1.00717
1.1067
1.45135
2.20362
2.85499
3.15422
3.2911
3.29764
3.28819
3.26589
3.24907
3.24653
3.24428
3.24202
3.24539
3.24666
3.24886
3.25117
3.2535
3.25501
3.25467
3.25499
3.25495
3.25468
3.25451
3.25317
3.2494
3.23638
1
1
1
1
1
1
1
1
1
1
1
1
1
1
1
1
1
1
1
1
1
1
1
1
1
1
1
1
1
1
1
1
1
1
1
1
1
1
1
1
1
1
1
1
1
1
1
1
1
1
1
1
1.00004
1.00277
1.03549
1.28773
1.97738
2.59813
3.02254
3.24138
3.25681
3.26475
3.27586
3.27543
3.26897
3.26267
3.26053
3.25824
3.25584
3.2539
3.25303
3.25264
3.25204
3.25347
3.25401
3.25385
3.25388
3.25283
3.24936
3.23575
1
1
1
1
1
1
1
1
1
1
1
1
1
1
1
1
1
1
1
1
1
1
1
1
1
1
1
1
1
1
1
1
1
1
1
1
1
1
1
1
1
1
1
1
1
1
1
1
1
1
1
1
1
1.00001
1.00059
1.01602
1.16345
1.70063
2.47893
3.0146
3.09247
3.16163
3.21431
3.23639
3.25119
3.26195
3.26615
3.26787
3.26664
3.261
3.25687
3.25479
3.25348
3.2538
3.25346
3.25296
3.25388
3.25325
3.25002
3.23618
1
1
1
1
1
1
1
1
1
1
1
1
1
1
1
1
1
1
1
1
1
1
1
1
1
1
1
1
1
1
1
1
1
1
1
1
1
1
1
1
1
1
1
1
1
1
1
1
1
1
1
1
1
1
1
1.00017
1.00688
1.09247
1.45822
2.24749
2.97735
3.16102
3.16786
3.1826
3.21361
3.23562
3.24346
3.2511
3.2584
3.25935
3.2568
3.25345
3.25224
3.25361
3.25339
3.25196
3.25205
3.25241
3.25043
3.23749
1
1
1
1
1
1
1
1
1
1
1
1
1
1
1
1
1
1
1
1
1
1
1
1
1
1
1
1
1
1
1
1
1
1
1
1
1
1
1
1
1
1
1
1
1
1
1
1
1
1
1
1
1
1
1
1
1.00005
1.00262
1.04373
1.31182
2.08916
2.81954
3.1568
3.24615
3.26541
3.25855
3.2518
3.25003
3.25179
3.25242
3.25019
3.247
3.24773
3.25199
3.2528
3.25205
3.25158
3.2514
3.25013
3.23906
1
1
1
1
1
1
1
1
1
1
1
1
1
1
1
1
1
1
1
1
1
1
1
1
1
1
1
1
1
1
1
1
1
1
1
1
1
1
1
1
1
1
1
1
1
1
1
1
1
1
1
1
1
1
1
1
1
1.00001
1.00089
1.02469
1.263
1.87848
2.61222
3.13223
3.25443
3.25945
3.26807
3.27617
3.27475
3.26467
3.25231
3.24521
3.24636
3.25151
3.25424
3.25468
3.25294
3.25129
3.24952
3.24984
1
1
1
1
1
1
1
1
1
1
1
1
1
1
1
1
1
1
1
1
1
1
1
1
1
1
1
1
1
1
1
1
1
1
1
1
1
1
1
1
1
1
1
1
1
1
1
1
1
1
1
1
1
1
1
1
1
1
1
1.0006
1.01528
1.16984
1.74403
2.6315
2.99206
3.11205
3.1964
3.25948
3.26725
3.25887
3.24293
3.23607
3.24104
3.25058
3.25717
3.25922
3.25769
3.25282
3.24941
3.36754
1
1
1
1
1
1
1
1
1
1
1
1
1
1
1
1
1
1
1
1
1
1
1
1
1
1
1
1
1
1
1
1
1
1
1
1
1
1
1
1
1
1
1
1
1
1
1
1
1
1
1
1
1
1
1
1
1
1
1
1
1.0002
1.0103
1.11193
1.61801
2.50917
3.04331
3.19269
3.24138
3.24781
3.24355
3.23326
3.22989
3.23457
3.2431
3.25591
3.2612
3.25998
3.254
3.25903
4.00137
1
1
1
1
1
1
1
1
1
1
1
1
1
1
1
1
1
1
1
1
1
1
1
1
1
1
1
1
1
1
1
1
1
1
1
1
1
1
1
1
1
1
1
1
1
1
1
1
1
1
1
1
1
1
1
1
1
1
1
1
1
1.00015
1.00449
1.09344
1.5475
2.35205
2.99335
3.24721
3.27591
3.27175
3.26025
3.2462
3.24093
3.24294
3.25381
3.26239
3.26107
3.27576
3.50935
5.60993
1
1
1
1
1
1
1
1
1
1
1
1
1
1
1
1
1
1
1
1
1
1
1
1
1
1
1
1
1
1
1
1
1
1
1
1
1
1
1
1
1
1
1
1
1
1
1
1
1
1
1
1
1
1
1
1
1
1
1
1
1
1
1.00005
1.0042
1.06773
1.50032
2.36037
2.90581
3.09798
3.22097
3.24871
3.2435
3.23443
3.23724
3.24733
3.26159
3.29441
3.69604
5.15499
7.28979
1
1
1
1
1
1
1
1
1
1
1
1
1
1
1
1
1
1
1
1
1
1
1
1
1
1
1
1
1
1
1
1
1
1
1
1
1
1
1
1
1
1
1
1
1
1
1
1
1
1
1
1
1
1
1
1
1
1
1
1
1
1
1
1.00005
1.00284
1.06294
1.40896
2.21934
2.96833
3.24856
3.24841
3.22912
3.21647
3.22115
3.22951
3.28143
3.75017
5.50275
7.6223
8.24539
1
1
1
1
1
1
1
1
1
1
1
1
1
1
1
1
1
1
1
1
1
1
1
1
1
1
1
1
1
1
1
1
1
1
1
1
1
1
1
1
1
1
1
1
1
1
1
1
1
1
1
1
1
1
1
1
1
1
1
1
1
1
1
1
1.00004
1.00216
1.04572
1.39113
2.21256
2.89117
3.19292
3.25607
3.24402
3.24184
3.29141
3.93083
5.76473
7.38991
8.27133
8.27158
1
1
1
1
1
1
1
1
1
1
1
1
1
1
1
1
1
1
1
1
1
1
1
1
1
1
1
1
1
1
1
1
1
1
1
1
1
1
1
1
1
1
1
1
1
1
1
1
1
1
1
1
1
1
1
1
1
1
1
1
1
1
1
1
1
1.00002
1.0019
1.0433
1.38965
2.2145
3.0861
3.18005
3.18443
3.30219
4.14548
6.13975
7.87541
8.33138
8.35922
8.20455
1
1
1
1
1
1
1
1
1
1
1
1
1
1
1
1
1
1
1
1
1
1
1
1
1
1
1
1
1
1
1
1
1
1
1
1
1
1
1
1
1
1
1
1
1
1
1
1
1
1
1
1
1
1
1
1
1
1
1
1
1
1
1
1
1
1
1.00003
1.00182
1.05024
1.40785
2.38448
2.89492
3.6974
4.62797
6.39547
7.46991
8.34975
8.41518
8.32391
8.11336
1
1
1
1
1
1
1
1
1
1
1
1
1
1
1
1
1
1
1
1
1
1
1
1
1
1
1
1
1
1
1
1
1
1
1
1
1
1
1
1
1
1
1
1
1
1
1
1
1
1
1
1
1
1
1
1
1
1
1
1
1
1
1
1
1
1
1
1.00003
1.00222
1.06018
1.51805
3.02942
4.96696
7.50532
9.23622
9.09114
8.79445
8.48949
8.25838
8.0193
)
;

boundaryField
{
    inlet
    {
        type            fixedValue;
        value           uniform 1;
    }
    outlet
    {
        type            zeroGradient;
    }
    bottom
    {
        type            symmetryPlane;
    }
    top
    {
        type            symmetryPlane;
    }
    obstacle
    {
        type            zeroGradient;
    }
    defaultFaces
    {
        type            empty;
    }
}


// ************************************************************************* //
