/*--------------------------------*- C++ -*----------------------------------*\
| =========                 |                                                 |
| \\      /  F ield         | OpenFOAM: The Open Source CFD Toolbox           |
|  \\    /   O peration     | Version:  2206                                  |
|   \\  /    A nd           | Website:  www.openfoam.com                      |
|    \\/     M anipulation  |                                                 |
\*---------------------------------------------------------------------------*/
FoamFile
{
    version     2.0;
    format      ascii;
    arch        "LSB;label=32;scalar=64";
    class       volScalarField;
    location    "0.04";
    object      T;
}
// * * * * * * * * * * * * * * * * * * * * * * * * * * * * * * * * * * * * * //

dimensions      [0 0 0 1 0 0 0];

internalField   nonuniform List<scalar> 
75
(
1
1
1
1
1
1
1
1
1
1
1
1
1
1
1
1
1
1
1
1
1
1
1
1
1
1.07377
1.17708
1.29114
1.40574
1.50822
1.59149
1.65886
1.7142
1.76162
1.81238
0.999707
1.00151
1.01393
1.04956
1.10823
1.17359
1.23171
1.28385
1.32881
1.39894
0.99999
0.999985
0.999868
1.00033
1.00017
1.004
1.00681
1.01839
1.02808
1.08222
1
0.999999
0.999988
0.999992
0.999994
1.00001
0.999984
1.00009
0.999916
1.0013
1
1
1
0.999999
0.999999
1
0.999998
0.999999
0.99999
0.999997
)
;

boundaryField
{
    inlet
    {
        type            fixedValue;
        value           uniform 1;
    }
    outlet
    {
        type            zeroGradient;
    }
    bottom
    {
        type            symmetryPlane;
    }
    top
    {
        type            symmetryPlane;
    }
    obstacle
    {
        type            zeroGradient;
    }
    defaultFaces
    {
        type            empty;
    }
}


// ************************************************************************* //
