/*--------------------------------*- C++ -*----------------------------------*\
| =========                 |                                                 |
| \\      /  F ield         | OpenFOAM: The Open Source CFD Toolbox           |
|  \\    /   O peration     | Version:  2206                                  |
|   \\  /    A nd           | Website:  www.openfoam.com                      |
|    \\/     M anipulation  |                                                 |
\*---------------------------------------------------------------------------*/
FoamFile
{
    version     2.0;
    format      ascii;
    arch        "LSB;label=32;scalar=64";
    class       volVectorField;
    location    "0.14";
    object      U;
}
// * * * * * * * * * * * * * * * * * * * * * * * * * * * * * * * * * * * * * //

dimensions      [0 1 -1 0 0 0 0];

internalField   nonuniform List<vector> 
4800
(
(3.28283 1.7203e-15 0)
(3.28283 -4.69781e-14 0)
(3.28283 -5.789e-14 0)
(3.28283 -7.20224e-14 0)
(3.28283 -8.92254e-14 0)
(3.28283 -7.22892e-14 0)
(3.28283 -2.1197e-14 0)
(3.28283 6.83451e-16 0)
(3.28283 1.71963e-14 0)
(3.28283 2.21172e-14 0)
(3.28283 9.74168e-15 0)
(3.28283 2.4921e-14 0)
(3.28283 3.11987e-14 0)
(3.28283 -7.06922e-14 0)
(3.28283 -1.46019e-13 0)
(3.28283 -1.12823e-13 0)
(3.28283 7.00788e-15 0)
(3.28283 -1.38324e-14 0)
(3.28283 -9.37162e-15 0)
(3.28283 -2.39941e-14 0)
(3.28283 2.68046e-15 0)
(3.28283 4.37476e-14 0)
(3.28283 1.01984e-14 0)
(3.28283 -1.02351e-14 0)
(3.28283 -1.29329e-13 0)
(3.28283 -1.38831e-13 0)
(3.28283 -6.98621e-14 0)
(3.28283 -4.75415e-14 0)
(3.28283 -1.09319e-14 0)
(3.28283 -3.37992e-14 0)
(3.28283 -3.81399e-15 0)
(3.28283 3.98902e-14 0)
(3.28283 7.96504e-14 0)
(3.28283 1.00377e-13 0)
(3.28283 1.03455e-13 0)
(3.28283 1.26942e-13 0)
(3.28283 1.12196e-13 0)
(3.28283 8.00572e-14 0)
(3.28283 6.3791e-14 0)
(3.28283 -1.66895e-14 0)
(3.28283 1.75564e-14 0)
(3.28283 -9.43496e-16 0)
(3.28283 -5.52962e-14 0)
(3.28283 -6.79017e-14 0)
(3.28283 -8.78852e-14 0)
(3.28283 -4.51311e-14 0)
(3.28283 5.76766e-15 0)
(3.28283 6.35443e-15 0)
(3.28283 -6.38644e-14 0)
(3.28283 -6.43711e-14 0)
(3.28283 -4.94219e-14 0)
(3.28283 -5.54862e-14 0)
(3.28283 -2.70247e-14 0)
(3.28283 -9.57365e-14 0)
(3.28283 -1.29059e-13 0)
(3.28283 -8.46846e-14 0)
(3.28283 5.95036e-14 0)
(3.28283 2.94418e-14 0)
(3.28283 3.12721e-15 0)
(3.28283 2.21605e-14 0)
(3.28283 5.62164e-14 0)
(3.28283 6.78984e-14 0)
(3.28283 2.85683e-14 0)
(3.28283 1.99068e-14 0)
(3.28283 -4.46377e-14 0)
(3.28283 -9.53065e-14 0)
(3.28283 -2.46209e-14 0)
(3.28283 -1.78297e-14 0)
(3.28283 1.02351e-15 0)
(3.28283 -3.17588e-14 0)
(3.28283 -3.18822e-14 0)
(3.28283 1.64528e-14 0)
(3.28283 5.09255e-14 0)
(3.28283 1.08545e-13 0)
(3.28283 1.7131e-13 0)
(3.28283 2.68206e-13 0)
(3.28283 2.89933e-13 0)
(3.28283 2.82212e-13 0)
(3.28283 2.58498e-13 0)
(3.28283 9.91346e-14 0)
(3.28283 -1.3399e-14 0)
(3.28283 4.56412e-15 0)
(3.28283 2.64812e-14 0)
(3.28283 -8.37145e-15 0)
(3.28283 -6.3611e-15 0)
(3.28283 1.44658e-14 0)
(3.28283 2.26706e-16 0)
(3.28283 -1.60161e-14 0)
(3.28283 -9.19459e-14 0)
(3.28283 -1.7523e-14 0)
(3.28283 6.54013e-14 0)
(3.28283 1.16267e-13 0)
(3.28283 2.31373e-14 0)
(3.28283 -5.12655e-14 0)
(3.28283 -5.68665e-14 0)
(3.28283 -3.89834e-14 0)
(3.28283 -2.24872e-14 0)
(3.28283 1.90733e-14 0)
(3.28283 3.87634e-14 0)
(3.28283 9.2486e-14 0)
(3.28283 8.96722e-14 0)
(3.28283 2.77615e-14 0)
(3.28283 -8.8562e-14 0)
(3.28283 -1.67752e-13 0)
(3.28283 -9.15125e-14 0)
(3.28283 -9.58599e-14 0)
(3.28283 -1.1827e-13 0)
(3.28283 -1.26969e-13 0)
(3.28283 -1.14907e-13 0)
(3.28283 -7.28326e-14 0)
(3.28283 -1.08395e-13 0)
(3.28283 -8.05339e-14 0)
(3.28283 -1.32523e-14 0)
(3.28283 1.28209e-13 0)
(3.28283 1.21061e-13 0)
(3.28283 9.53531e-14 0)
(3.28283 2.12433e-13 0)
(3.28283 2.56988e-13 0)
(3.28283 2.62995e-13 0)
(3.28283 2.25895e-13 0)
(3.28283 -3.98636e-14 0)
(3.28283 -3.06353e-14 0)
(3.28283 1.21554e-14 0)
(3.28283 3.43393e-16 0)
(3.28283 -2.3304e-14 0)
(3.28283 -1.76397e-14 0)
(3.28283 1.63695e-15 0)
(3.28283 -3.11054e-15 0)
(3.28283 4.12871e-14 0)
(3.28283 1.62115e-13 0)
(3.28283 2.10333e-13 0)
(3.28283 1.77641e-13 0)
(3.28283 3.90667e-14 0)
(3.28283 -1.16187e-14 0)
(3.28283 -6.52946e-14 0)
(3.28283 -1.25135e-13 0)
(3.28283 -1.40398e-13 0)
(3.28283 -1.01184e-13 0)
(3.28283 -5.50628e-14 0)
(3.28283 -3.51061e-14 0)
(3.28283 -2.98151e-14 0)
(3.28283 -7.06255e-14 0)
(3.28283 -1.93437e-13 0)
(3.28283 -2.35854e-13 0)
(3.28283 -1.93607e-13 0)
(3.28283 -1.88269e-13 0)
(3.28283 -2.25002e-13 0)
(3.28283 -2.61202e-13 0)
(3.28283 -2.05019e-13 0)
(3.28283 -1.31566e-13 0)
(3.28283 -9.38229e-14 0)
(3.28283 -1.06458e-13 0)
(3.28283 -4.71815e-14 0)
(3.28283 -7.48463e-15 0)
(3.28283 -8.16141e-15 0)
(3.28283 -5.20523e-14 0)
(3.28283 -5.60197e-14 0)
(3.28283 -7.28726e-14 0)
(3.28283 -3.6633e-14 0)
(3.28283 3.42171e-14 0)
(3.28283 4.01269e-14 0)
(3.28283 5.27024e-14 0)
(3.28283 2.12203e-14 0)
(3.28283 6.17273e-14 0)
(3.28283 3.81266e-14 0)
(3.28283 -7.22158e-14 0)
(3.28283 -6.56413e-14 0)
(3.28283 -1.3769e-15 0)
(3.28283 8.85286e-14 0)
(3.28283 1.44235e-13 0)
(3.28283 9.17292e-14 0)
(3.28283 6.49112e-15 0)
(3.28283 -1.27489e-14 0)
(3.28283 -1.68629e-14 0)
(3.28283 -6.71783e-15 0)
(3.28283 -4.28241e-14 0)
(3.28283 -5.25257e-14 0)
(3.28283 -7.06889e-14 0)
(3.28283 -1.05858e-13 0)
(3.28283 -1.09129e-13 0)
(3.28283 -1.06108e-13 0)
(3.28283 -1.00651e-13 0)
(3.28283 -9.86337e-14 0)
(3.28283 -9.93472e-14 0)
(3.28283 -1.27199e-13 0)
(3.28283 -2.20615e-13 0)
(3.28283 -3.14451e-13 0)
(3.28283 -3.00335e-13 0)
(3.28283 -2.28663e-13 0)
(3.28283 -2.10973e-13 0)
(3.28283 -1.52996e-13 0)
(3.28283 -1.81358e-13 0)
(3.28283 -1.86696e-13 0)
(3.28283 -1.83432e-13 0)
(3.28283 -1.27149e-13 0)
(3.28283 -1.16367e-13 0)
(3.28283 -1.86426e-13 0)
(3.28283 -1.99551e-13 0)
(3.28283 -1.99354e-13 0)
(3.28283 -8.31534e-14 0)
(3.28283 3.11587e-14 0)
(3.28283 8.32144e-14 0)
(3.28283 5.61997e-14 0)
(3.28283 3.83133e-14 0)
(3.28283 2.43642e-14 0)
(3.28283 1.53293e-14 0)
(3.28283 -3.72231e-14 0)
(3.28283 -2.68746e-14 0)
(3.28283 -5.81434e-15 0)
(3.28283 2.11036e-15 0)
(3.28283 -4.74782e-14 0)
(3.28283 -7.08556e-14 0)
(3.28283 -8.26609e-14 0)
(3.28283 -8.29143e-14 0)
(3.28283 -4.02603e-14 0)
(3.28283 -1.12953e-14 0)
(3.28283 -1.80031e-16 0)
(3.28283 2.43709e-14 0)
(3.28283 -1.57127e-14 0)
(3.28283 -5.38326e-14 0)
(3.28283 -4.09671e-14 0)
(3.28283 3.845e-14 0)
(3.28283 9.09924e-14 0)
(3.28283 8.34277e-14 0)
(3.28283 6.30442e-15 0)
(3.28283 -1.65135e-13 0)
(3.28283 -2.40742e-13 0)
(3.28283 -2.99302e-13 0)
(3.28283 -3.25673e-13 0)
(3.28283 -2.83866e-13 0)
(3.28283 -1.74063e-13 0)
(3.28283 -1.22441e-13 0)
(3.28283 -1.5401e-13 0)
(3.28283 -1.21551e-13 0)
(3.28283 -1.01931e-13 0)
(3.28283 -7.08089e-14 0)
(3.28283 -8.4708e-14 0)
(3.28283 -8.50047e-14 0)
(3.28283 -1.21008e-13 0)
(3.28283 -1.31023e-13 0)
(3.28283 -2.18471e-14 0)
(3.28283 -3.56962e-14 0)
(3.28283 -2.06836e-14 0)
(3.28283 -4.8025e-14 0)
(3.28283 -3.93068e-14 0)
(3.28283 2.49076e-14 0)
(3.28283 7.27059e-14 0)
(3.28283 8.09373e-14 0)
(3.28283 2.6938e-14 0)
(3.28283 -3.71164e-14 0)
(3.28283 -1.23318e-13 0)
(3.28283 -2.10563e-13 0)
(3.28283 -2.3166e-13 0)
(3.28283 -1.31076e-13 0)
(3.28283 -6.96587e-14 0)
(3.28283 -4.30274e-14 0)
(3.28283 6.1524e-14 0)
(3.28283 5.01553e-14 0)
(3.28283 2.6798e-14 0)
(3.28283 -1.90566e-14 0)
(3.28283 -8.22475e-15 0)
(3.28283 9.99573e-14 0)
(3.28283 1.48336e-13 0)
(3.28283 1.04971e-13 0)
(3.28283 1.08485e-14 0)
(3.28283 -1.08582e-13 0)
(3.28283 -1.13053e-13 0)
(3.28283 -1.21128e-13 0)
(3.28283 -1.26325e-13 0)
(3.28283 -9.06723e-14 0)
(3.28283 -1.10342e-13 0)
(3.28283 -1.46152e-13 0)
(3.28283 -8.19875e-14 0)
(3.28283 -4.27007e-14 0)
(3.28283 -1.68729e-14 0)
(3.28283 5.9707e-14 0)
(3.28283 -3.90067e-16 0)
(3.28283 -4.78349e-14 0)
(3.28283 -6.38644e-14 0)
(3.28283 -1.57254e-13 0)
(3.28283 7.3346e-17 0)
(3.28283 -5.73132e-14 0)
(3.28283 -6.63515e-14 0)
(3.28283 -6.89252e-14 0)
(3.28283 -6.0047e-14 0)
(3.28283 -4.21573e-14 0)
(3.28283 1.19354e-15 0)
(3.28283 1.78397e-14 0)
(3.28283 1.50626e-14 0)
(3.28283 -3.70064e-15 0)
(3.28283 -3.22322e-14 0)
(3.28283 -2.71914e-14 0)
(3.28283 -2.41075e-14 0)
(3.28283 2.62345e-14 0)
(3.28283 9.17825e-14 0)
(3.28283 1.06555e-13 0)
(3.28283 1.45859e-13 0)
(3.28283 1.10692e-13 0)
(3.28283 5.46594e-14 0)
(3.28283 -4.09737e-14 0)
(3.28283 -5.41327e-14 0)
(3.28283 -7.26859e-14 0)
(3.28283 -9.99906e-14 0)
(3.28283 -1.10526e-13 0)
(3.28283 -1.79981e-13 0)
(3.28283 -2.07472e-13 0)
(3.28283 -7.43995e-14 0)
(3.28283 -4.31408e-14 0)
(3.28283 -4.8505e-14 0)
(3.28283 -2.47943e-14 0)
(3.28283 -1.26208e-13 0)
(3.28283 -1.36464e-13 0)
(3.28283 -1.46555e-13 0)
(3.28283 -1.86849e-13 0)
(3.28283 -1.5484e-13 0)
(3.28283 -8.03139e-14 0)
(3.28283 -9.4713e-14 0)
(3.28283 -1.07058e-13 0)
(3.28283 -7.05088e-14 0)
(3.28283 -1.23808e-13 0)
(3.28283 6.11439e-15 0)
(3.28283 -3.57395e-15 0)
(3.28283 -2.99018e-14 0)
(3.28283 -2.85616e-14 0)
(3.28283 -3.82066e-15 0)
(3.28283 3.90934e-14 0)
(3.28283 1.1652e-14 0)
(3.28283 -7.09889e-14 0)
(3.28283 -6.23008e-14 0)
(3.28283 -4.89385e-14 0)
(3.28283 5.02553e-14 0)
(3.28283 8.18075e-14 0)
(3.28283 7.01288e-14 0)
(3.28283 1.06415e-13 0)
(3.28283 2.26973e-14 0)
(3.28283 1.04518e-14 0)
(3.28283 -1.05452e-14 0)
(3.28283 -3.14721e-14 0)
(3.28283 -3.37992e-14 0)
(3.28283 -7.19358e-14 0)
(3.28283 -1.09642e-13 0)
(3.28283 -1.79798e-13 0)
(3.28283 -2.01251e-13 0)
(3.28283 -1.63095e-13 0)
(3.28283 -1.31979e-13 0)
(3.28283 -6.5668e-14 0)
(3.28283 2.47143e-14 0)
(3.28283 2.95984e-14 0)
(3.28283 1.10919e-14 0)
(3.28283 -3.82333e-14 0)
(3.28283 -1.54487e-13 0)
(3.28283 -1.61865e-13 0)
(3.28283 -1.74363e-13 0)
(3.28283 -1.61945e-13 0)
(3.28283 -1.29546e-13 0)
(3.28283 -1.72873e-13 0)
(3.28283 -1.66659e-13 0)
(3.28283 -1.62881e-13 0)
(3.28283 -2.11096e-13 0)
(3.28283 -1.9173e-13 0)
(3.28283 2.03268e-14 0)
(3.28283 4.32375e-14 0)
(3.28283 5.96836e-14 0)
(3.28283 1.05625e-13 0)
(3.28283 1.09756e-13 0)
(3.28283 8.42779e-14 0)
(3.28283 3.27457e-14 0)
(3.28283 -8.57815e-15 0)
(3.28283 -5.05287e-14 0)
(3.28283 -8.97155e-14 0)
(3.28283 -8.20808e-15 0)
(3.28283 5.64431e-15 0)
(3.28283 2.49176e-14 0)
(3.28283 -3.16788e-14 0)
(3.28283 -2.92217e-14 0)
(3.28283 -5.27524e-14 0)
(3.28283 -7.35094e-14 0)
(3.28283 -2.54744e-14 0)
(3.28283 2.03268e-14 0)
(3.28283 1.7363e-14 0)
(3.28283 -2.48443e-14 0)
(3.28283 -9.44897e-14 0)
(3.28283 -8.32177e-14 0)
(3.28283 -7.81835e-14 0)
(3.28283 -7.64032e-14 0)
(3.28283 -3.84466e-14 0)
(3.28283 -3.62729e-15 0)
(3.28283 2.64812e-14 0)
(3.28283 4.98219e-14 0)
(3.28283 3.75865e-14 0)
(3.28283 -5.05587e-14 0)
(3.28283 -6.25075e-14 0)
(3.28283 -2.69113e-14 0)
(3.28283 -4.82417e-15 0)
(3.28283 -4.48544e-14 0)
(3.28283 -7.52663e-14 0)
(3.28283 -5.17489e-14 0)
(3.28283 -1.7503e-14 0)
(3.28283 -1.43291e-14 0)
(3.28283 -3.48056e-14 0)
(3.28283 -7.10789e-15 0)
(3.28283 -1.26489e-14 0)
(3.28283 1.1412e-14 0)
(3.28283 3.2939e-15 0)
(3.28283 1.42858e-14 0)
(3.28283 3.2819e-14 0)
(3.28283 2.83082e-14 0)
(3.28283 9.2616e-15 0)
(3.28283 7.52797e-15 0)
(3.28283 5.89435e-15 0)
(3.28283 -3.62563e-14 0)
(3.28283 -1.59194e-14 0)
(3.28283 -1.55093e-14 0)
(3.28283 -2.44075e-14 0)
(3.28283 7.59698e-14 0)
(3.28283 8.95055e-14 0)
(3.28283 1.00817e-13 0)
(3.28283 9.13358e-14 0)
(3.28283 5.55163e-14 0)
(3.28283 5.819e-14 0)
(3.28283 2.26639e-14 0)
(3.28283 -9.53165e-15 0)
(3.28283 1.05385e-14 0)
(3.28283 9.16825e-16 0)
(3.28283 -4.42643e-14 0)
(3.28283 -4.15205e-14 0)
(3.28283 -2.8985e-14 0)
(3.28283 -2.59311e-14 0)
(3.28283 -7.04455e-15 0)
(3.28283 6.72083e-14 0)
(3.28283 1.10349e-13 0)
(3.28283 1.02998e-13 0)
(3.28283 -6.07805e-14 0)
(3.28283 -9.15291e-14 0)
(3.28283 -1.12019e-13 0)
(3.28283 -5.67431e-15 0)
(3.28283 1.30949e-13 0)
(3.28283 2.26069e-13 0)
(3.28283 2.3031e-13 0)
(3.28283 1.53331e-13 0)
(3.28283 -1.80698e-14 0)
(3.28283 -1.70096e-14 0)
(3.28283 -1.27955e-14 0)
(3.28283 -4.51045e-14 0)
(3.28283 -3.18388e-15 0)
(3.28283 2.58778e-14 0)
(3.28283 3.24389e-15 0)
(3.28283 -3.2839e-14 0)
(3.28283 -3.25023e-14 0)
(3.28283 -4.13071e-14 0)
(3.28283 -3.4956e-14 0)
(3.28283 -7.62132e-14 0)
(3.28283 -6.1504e-14 0)
(3.28283 -1.40458e-14 0)
(3.28283 2.5341e-14 0)
(3.28283 5.49762e-14 0)
(3.28283 5.64531e-14 0)
(3.28283 7.38094e-14 0)
(3.28283 2.16404e-14 0)
(3.28283 4.93952e-14 0)
(3.28283 2.69013e-14 0)
(3.28283 3.92434e-14 0)
(3.28283 -8.97822e-15 0)
(3.28283 -5.32492e-14 0)
(3.28283 -1.41991e-14 0)
(3.28283 -2.33874e-14 0)
(3.28283 -1.99301e-14 0)
(3.28283 -3.44059e-14 0)
(3.28283 -5.15456e-14 0)
(3.28283 -6.64181e-14 0)
(3.28283 -4.0667e-14 0)
(3.28283 1.19221e-14 0)
(3.28283 9.31027e-14 0)
(3.28283 9.76235e-14 0)
(3.28283 9.93572e-14 0)
(3.28283 1.14957e-13 0)
(3.28283 2.09486e-13 0)
(3.28283 1.71146e-13 0)
(3.28283 1.34513e-13 0)
(3.28283 1.47869e-13 0)
(3.28283 2.69747e-14 0)
(3.28283 8.05839e-14 0)
(3.28283 6.65715e-14 0)
(3.28283 7.05422e-14 0)
(3.28283 9.01689e-14 0)
(3.28283 7.28492e-14 0)
(3.28283 7.37427e-14 0)
(3.28283 4.95186e-14 0)
(3.28283 -2.76748e-14 0)
(3.28283 -4.06037e-14 0)
(3.28283 -3.60862e-14 0)
(3.28283 -4.79649e-14 0)
(3.28283 8.48146e-15 0)
(3.28283 2.27506e-14 0)
(3.28283 -5.73199e-14 0)
(3.28283 -7.16957e-14 0)
(3.28283 -7.24725e-14 0)
(3.28283 -3.19789e-14 0)
(3.28283 1.17254e-14 0)
(3.28283 1.83532e-14 0)
(3.28283 7.83335e-14 0)
(3.28283 7.76134e-14 0)
(3.28283 6.86519e-14 0)
(3.28283 7.67933e-14 0)
(3.28283 5.91602e-14 0)
(3.28283 3.43793e-14 0)
(3.28283 -6.13439e-16 0)
(3.28283 -6.91453e-15 0)
(3.28283 -4.04437e-14 0)
(3.28283 -3.69597e-14 0)
(3.28283 -4.61646e-14 0)
(3.28283 6.23041e-14 0)
(3.28283 1.7425e-13 0)
(3.28283 1.7557e-13 0)
(3.28283 2.38901e-13 0)
(3.28283 2.18658e-13 0)
(3.28283 1.42231e-13 0)
(3.28283 1.1738e-13 0)
(3.28283 1.19107e-13 0)
(3.28283 1.79933e-13 0)
(3.28283 5.791e-15 0)
(3.28283 -1.929e-14 0)
(3.28283 4.13405e-15 0)
(3.28283 2.85983e-14 0)
(3.28283 2.41008e-14 0)
(3.28283 4.4301e-14 0)
(3.28283 7.70066e-14 0)
(3.28283 8.42245e-14 0)
(3.28283 5.806e-14 0)
(3.28283 4.4541e-14 0)
(3.28283 -1.98334e-14 0)
(3.28283 4.34542e-14 0)
(3.28283 2.76681e-14 0)
(3.28283 -3.6573e-14 0)
(3.28283 -4.15705e-14 0)
(3.28283 -5.46061e-14 0)
(3.28283 -9.72135e-14 0)
(3.28283 -6.19607e-14 0)
(3.28283 -1.03685e-15 0)
(3.28283 3.6553e-14 0)
(3.28283 6.97554e-14 0)
(3.28283 7.77234e-14 0)
(3.28283 3.1006e-13 0)
(3.28283 2.65513e-13 0)
(3.28283 1.66415e-13 0)
(3.28283 1.24888e-13 0)
(3.28283 1.08675e-13 0)
(3.28283 9.62266e-14 0)
(3.28283 9.58899e-14 0)
(3.28283 1.47345e-13 0)
(3.28283 1.21411e-13 0)
(3.28283 1.00814e-13 0)
(3.28283 7.42628e-14 0)
(3.28283 1.04918e-13 0)
(3.28283 1.36704e-13 0)
(3.28283 1.47662e-13 0)
(3.28283 1.24338e-13 0)
(3.28283 1.58491e-13 0)
(3.28283 2.05179e-13 0)
(3.28283 1.8053e-13 0)
(3.28283 -3.0732e-14 0)
(3.28283 -1.00061e-13 0)
(3.28283 -1.23891e-13 0)
(3.28283 -1.44358e-13 0)
(3.28283 -1.01194e-13 0)
(3.28283 -8.60182e-14 0)
(3.28283 -8.96555e-14 0)
(3.28283 -2.3274e-14 0)
(3.28283 8.16374e-14 0)
(3.28283 1.00857e-13 0)
(3.28283 1.03965e-13 0)
(3.28283 1.29092e-13 0)
(3.28283 1.39091e-14 0)
(3.28283 -7.65265e-14 0)
(3.28283 -2.85449e-14 0)
(3.28283 -5.26424e-15 0)
(3.28283 3.19555e-14 0)
(3.28283 5.0152e-14 0)
(3.28283 9.60599e-14 0)
(3.28283 1.14613e-13 0)
(3.28283 1.08419e-13 0)
(3.28283 1.85615e-13 0)
(3.28283 2.36634e-13 0)
(3.28283 2.07359e-13 0)
(3.28283 1.64942e-13 0)
(3.28283 1.07305e-13 0)
(3.28283 9.94505e-14 0)
(3.28283 1.54917e-13 0)
(3.28283 2.22075e-13 0)
(3.28283 1.9514e-13 0)
(3.28283 8.99755e-14 0)
(3.28283 -2.3164e-14 0)
(3.28283 -2.57811e-14 0)
(3.28283 -4.11838e-14 0)
(3.28283 -5.91402e-14 0)
(3.28283 -1.29756e-14 0)
(3.28283 3.31691e-14 0)
(3.28283 1.17694e-13 0)
(3.28283 1.3432e-13 0)
(3.28283 1.21191e-13 0)
(3.28283 -2.68313e-14 0)
(3.28283 6.71116e-15 0)
(3.28283 -4.59846e-14 0)
(3.28283 -4.05403e-14 0)
(3.28283 -4.29641e-14 0)
(3.28283 -5.53862e-14 0)
(3.28283 -6.66015e-14 0)
(3.28283 -1.84732e-14 0)
(3.28283 8.49947e-14 0)
(3.28283 1.60358e-13 0)
(3.28283 2.16064e-13 0)
(3.28283 7.72367e-14 0)
(3.28283 -1.35257e-14 0)
(3.28283 -1.71263e-14 0)
(3.28283 7.66799e-15 0)
(3.28283 1.33763e-13 0)
(3.28283 2.10173e-13 0)
(3.28283 1.97898e-13 0)
(3.28283 1.67246e-13 0)
(3.28283 1.32913e-13 0)
(3.28283 9.23226e-14 0)
(3.28283 5.45194e-14 0)
(3.28283 2.26906e-14 0)
(3.28283 7.39128e-14 0)
(3.28283 9.0639e-14 0)
(3.28283 1.09819e-13 0)
(3.28283 1.33216e-13 0)
(3.28283 1.132e-13 0)
(3.28283 1.55964e-13 0)
(3.28283 1.77364e-13 0)
(3.28283 1.28832e-13 0)
(3.28283 1.73307e-13 0)
(3.28283 2.18884e-13 0)
(3.28283 2.60735e-13 0)
(3.28283 2.08859e-13 0)
(3.28283 1.19157e-13 0)
(3.28283 2.60045e-14 0)
(3.28283 -7.91337e-14 0)
(3.28283 -7.72333e-14 0)
(3.28283 -1.06999e-14 0)
(3.28283 2.43942e-14 0)
(3.28283 7.55864e-14 0)
(3.28283 1.27559e-13 0)
(3.28283 1.10742e-13 0)
(3.28283 4.93752e-14 0)
(3.28283 2.4831e-14 0)
(3.28283 1.46492e-14 0)
(3.28283 -2.99218e-14 0)
(3.28283 -1.18987e-14 0)
(3.28283 3.17822e-14 0)
(3.28283 2.57945e-14 0)
(3.28283 -5.20957e-14 0)
(3.28283 -1.60761e-14 0)
(3.28283 -2.35907e-14 0)
(3.28283 -2.67546e-14 0)
(3.28283 -1.48026e-15 0)
(3.28283 6.56713e-14 0)
(3.28283 6.33709e-14 0)
(3.28283 3.6563e-14 0)
(3.28283 2.60145e-14 0)
(3.28283 3.24256e-14 0)
(3.28283 -1.59127e-14 0)
(3.28283 -1.08165e-13 0)
(3.28283 -8.3021e-14 0)
(3.28283 5.68198e-14 0)
(3.28283 1.55373e-13 0)
(3.28283 1.78634e-13 0)
(3.28283 1.54427e-13 0)
(3.28283 1.08145e-13 0)
(3.28283 8.77718e-14 0)
(3.28283 1.07545e-13 0)
(3.28283 1.90846e-13 0)
(3.28283 2.14234e-13 0)
(3.28283 2.77838e-13 0)
(3.28283 2.26659e-13 0)
(3.28283 8.22075e-14 0)
(3.28283 4.36742e-15 0)
(3.28283 -1.10306e-13 0)
(3.28283 -7.27026e-14 0)
(3.28283 -2.64702e-14 0)
(3.28283 2.3024e-14 0)
(3.28283 -4.53412e-16 0)
(3.28283 -6.17773e-15 0)
(3.28283 -5.20757e-15 0)
(3.28283 -2.54744e-14 0)
(3.28283 8.87153e-15 0)
(3.28283 6.27608e-14 0)
(3.28283 2.75814e-14 0)
(3.28283 -4.67547e-14 0)
(3.28283 -8.34677e-14 0)
(3.28283 -1.22388e-13 0)
(3.28283 -7.69066e-14 0)
(3.28283 -3.49394e-15 0)
(3.28283 -7.61465e-15 0)
(3.28283 -7.66866e-14 0)
(3.28283 -1.05078e-13 0)
(3.28283 -2.04355e-13 0)
(3.28283 -1.93273e-13 0)
(3.28283 -8.44279e-14 0)
(3.28283 -3.40325e-14 0)
(3.28283 -2.91517e-14 0)
(3.28283 2.19505e-14 0)
(3.28283 8.7115e-15 0)
(3.28283 -9.90171e-16 0)
(3.28283 9.55998e-14 0)
(3.28283 1.24882e-13 0)
(3.28283 2.42132e-13 0)
(3.28283 3.04799e-13 0)
(3.28283 2.19861e-13 0)
(3.28283 1.3613e-13 0)
(3.28283 1.40278e-13 0)
(3.28283 1.25242e-13 0)
(3.28283 8.39478e-14 0)
(3.28283 7.78601e-14 0)
(3.28283 6.13906e-14 0)
(3.28283 7.46462e-15 0)
(3.28283 1.81331e-14 0)
(3.28283 -2.05202e-14 0)
(3.28283 -8.35944e-14 0)
(3.28283 -4.30087e-14 0)
(3.28283 -2.27806e-14 0)
(3.28283 -5.91502e-14 0)
(3.28283 -4.60079e-14 0)
(3.28283 -1.06152e-14 0)
(3.28283 -2.9065e-14 0)
(3.28283 -2.41742e-14 0)
(3.28283 2.58411e-14 0)
(3.28283 1.56394e-14 0)
(3.28283 3.46727e-14 0)
(3.28283 9.73501e-15 0)
(3.28283 -7.11823e-14 0)
(3.28283 -5.30225e-14 0)
(3.28283 2.52677e-14 0)
(3.28283 2.35741e-14 0)
(3.28283 -8.20942e-14 0)
(3.28283 -1.22665e-13 0)
(3.28283 -1.31053e-13 0)
(3.28283 -1.05832e-13 0)
(3.28283 1.3669e-15 0)
(3.28283 -7.55664e-14 0)
(3.28283 -7.78968e-14 0)
(3.28283 -3.21122e-14 0)
(3.28283 -2.51043e-15 0)
(3.28283 -1.24488e-14 0)
(3.28283 3.63829e-14 0)
(3.28283 2.03649e-13 0)
(3.28283 2.47156e-13 0)
(3.28283 2.36447e-13 0)
(3.28283 2.16231e-13 0)
(3.28283 1.44888e-13 0)
(3.28283 1.3527e-13 0)
(3.28283 1.19481e-13 0)
(3.28283 2.6838e-14 0)
(3.28283 -3.37158e-14 0)
(3.28283 -3.69197e-14 0)
(3.28283 -1.14596e-13 0)
(3.28283 -1.07835e-13 0)
(3.28283 -9.71401e-14 0)
(3.28283 -1.78651e-13 0)
(3.28283 -1.00338e-13 0)
(3.28283 -5.08088e-15 0)
(3.28283 -1.00684e-14 0)
(3.28283 3.73364e-14 0)
(3.28283 3.04086e-14 0)
(3.28283 6.71116e-15 0)
(3.28283 -8.16474e-14 0)
(3.28283 -1.35393e-13 0)
(3.28283 -7.91437e-14 0)
(3.28283 -3.52828e-14 0)
(3.28283 -4.71081e-14 0)
(3.28283 -8.02072e-14 0)
(3.28283 -6.30809e-14 0)
(3.28283 3.42726e-15 0)
(3.28283 4.2554e-14 0)
(3.28283 1.14753e-14 0)
(3.28283 -1.22925e-13 0)
(3.28283 -9.77102e-14 0)
(3.28283 -7.62798e-14 0)
(3.28283 -7.24925e-14 0)
(3.28283 -8.65283e-14 0)
(3.28283 -6.71649e-14 0)
(3.28283 -7.4993e-14 0)
(3.28283 -7.96071e-14 0)
(3.28283 -3.60729e-14 0)
(3.28283 2.71614e-14 0)
(3.28283 1.39091e-13 0)
(3.28283 1.54887e-13 0)
(3.28283 1.19681e-13 0)
(3.28283 1.98951e-13 0)
(3.28283 1.97527e-13 0)
(3.28283 2.1518e-13 0)
(3.28283 1.57204e-13 0)
(3.28283 3.78265e-14 0)
(3.28283 1.1522e-14 0)
(3.28283 -2.8735e-14 0)
(3.28283 -1.52246e-13 0)
(3.28283 -1.59314e-13 0)
(3.28283 -1.77067e-13 0)
(3.28283 -2.1433e-13 0)
(3.28283 -1.27852e-13 0)
(3.28283 -7.06789e-16 0)
(3.28283 3.12187e-14 0)
(3.28283 2.71714e-14 0)
(3.28283 1.62495e-14 0)
(3.28283 -3.41059e-15 0)
(3.28283 -2.00635e-14 0)
(3.28283 -1.7193e-14 0)
(3.28283 1.907e-14 0)
(3.28283 1.96601e-14 0)
(3.28283 4.15405e-15 0)
(3.28283 1.98768e-14 0)
(3.28283 -9.71834e-15 0)
(3.28283 -2.70747e-14 0)
(3.28283 2.37674e-14 0)
(3.28283 3.15321e-14 0)
(3.28283 4.0797e-14 0)
(3.28283 9.41263e-14 0)
(3.28283 8.92354e-14 0)
(3.28283 -2.12703e-15 0)
(3.28283 -4.10071e-15 0)
(3.28283 -1.49492e-14 0)
(3.28283 -6.53546e-14 0)
(3.28283 -9.83737e-14 0)
(3.28283 -1.20754e-13 0)
(3.28283 -6.64915e-14 0)
(3.28283 1.3634e-13 0)
(3.28283 2.26489e-13 0)
(3.28283 2.3431e-13 0)
(3.28283 2.56891e-13 0)
(3.28283 2.44162e-13 0)
(3.28283 1.9332e-13 0)
(3.28283 1.3595e-13 0)
(3.28283 8.37445e-14 0)
(3.28283 8.60582e-14 0)
(3.28283 -1.3569e-15 0)
(3.28283 -5.31292e-14 0)
(3.28283 -6.60181e-14 0)
(3.28283 -2.49776e-14 0)
(3.28283 -7.06789e-15 0)
(3.28283 -2.32524e-14 0)
(3.28283 -7.01454e-15 0)
(3.28283 -2.64479e-14 0)
(3.28283 -3.99802e-14 0)
(3.28283 -2.69647e-14 0)
(3.28283 -2.6928e-14 0)
(3.28283 -4.31074e-15 0)
(3.28283 5.34792e-14 0)
(3.28283 3.81499e-14 0)
(3.28283 2.5181e-14 0)
(3.28283 2.83182e-14 0)
(3.28283 1.16987e-14 0)
(3.28283 1.31023e-15 0)
(3.28283 -2.47009e-14 0)
(3.28283 8.15474e-15 0)
(3.28283 4.00402e-14 0)
(3.28283 1.36974e-13 0)
(3.28283 1.27519e-13 0)
(3.28283 8.0994e-14 0)
(3.28283 2.25539e-14 0)
(3.28283 9.23493e-15 0)
(3.28283 8.53481e-16 0)
(3.28283 -2.55411e-14 0)
(3.28283 -3.98602e-14 0)
(3.28283 5.62764e-15 0)
(3.28283 4.39576e-14 0)
(3.28283 1.20564e-13 0)
(3.28283 1.14356e-13 0)
(3.28283 9.38229e-14 0)
(3.28283 7.43628e-14 0)
(3.28283 8.00105e-14 0)
(3.28283 7.49596e-14 0)
(3.28283 -1.98701e-15 0)
(3.28283 9.43496e-15 0)
(3.28283 -3.55361e-14 0)
(3.28283 -1.42118e-13 0)
(3.28283 -8.19141e-14 0)
(3.28283 -2.10136e-14 0)
(3.28283 -7.83469e-15 0)
(3.28283 -2.7168e-14 0)
(3.28283 -4.60002e-14 0)
(3.28283 1.11753e-14 0)
(3.28283 -1.70996e-14 0)
(3.28283 -2.65312e-14 0)
(3.28283 -2.01468e-14 0)
(3.28283 1.51993e-14 0)
(3.28283 2.91084e-14 0)
(3.28283 -1.3319e-14 0)
(3.28283 -5.13255e-14 0)
(3.28283 -5.66464e-14 0)
(3.28283 -8.36644e-14 0)
(3.28283 -7.95771e-14 0)
(3.28283 -1.18387e-14 0)
(3.28283 2.90984e-14 0)
(3.28283 8.57048e-14 0)
(3.28283 1.67026e-13 0)
(3.28283 1.61741e-13 0)
(3.28283 7.9307e-14 0)
(3.28283 -1.98601e-14 0)
(3.28283 -5.74499e-14 0)
(3.28283 -4.80116e-14 0)
(3.28283 -5.46728e-14 0)
(3.28283 -8.63016e-14 0)
(3.28283 -7.28392e-14 0)
(3.28283 6.98987e-14 0)
(3.28283 1.18004e-13 0)
(3.28283 1.09479e-13 0)
(3.28283 7.73767e-14 0)
(3.28283 2.45609e-14 0)
(3.28283 -6.00104e-15 0)
(3.28283 -2.47076e-14 0)
(3.28283 -8.51847e-14 0)
(3.28283 -1.01044e-13 0)
(3.28283 -5.80067e-14 0)
(3.28283 -6.45078e-14 0)
(3.28283 -1.09702e-13 0)
(3.28283 -6.01671e-14 0)
(3.28283 -4.09737e-14 0)
(3.28283 -5.26824e-14 0)
(3.28283 -2.08203e-14 0)
(3.28283 -3.38607e-14 0)
(3.28283 -1.7093e-14 0)
(3.28283 4.03303e-14 0)
(3.28283 1.43992e-14 0)
(3.28283 7.79135e-15 0)
(3.28283 1.61361e-14 0)
(3.28283 4.17439e-14 0)
(3.28283 2.14737e-14 0)
(3.28283 1.7093e-14 0)
(3.28283 1.09286e-14 0)
(3.28283 3.58062e-15 0)
(3.28283 2.21638e-14 0)
(3.28283 -1.96034e-15 0)
(3.28283 -9.93838e-15 0)
(3.28283 1.7493e-14 0)
(3.28283 1.00131e-13 0)
(3.28283 -1.07752e-14 0)
(3.28283 -4.91952e-14 0)
(3.28283 -7.22758e-14 0)
(3.28283 -2.03535e-14 0)
(3.28283 1.35557e-14 0)
(3.28283 5.92802e-14 0)
(3.28283 3.79132e-14 0)
(3.28283 4.56746e-14 0)
(3.28283 4.6408e-14 0)
(3.28283 2.21705e-14 0)
(3.28283 -6.14073e-14 0)
(3.28283 6.68449e-15 0)
(3.28283 9.93438e-14 0)
(3.28283 8.31344e-14 0)
(3.28283 -3.0932e-14 0)
(3.28283 -8.57315e-14 0)
(3.28283 -5.93202e-14 0)
(3.28283 -6.77684e-14 0)
(3.28283 -4.29307e-14 0)
(3.28283 6.5678e-15 0)
(3.28283 3.39292e-14 0)
(3.28283 7.75301e-14 0)
(3.28283 1.19061e-13 0)
(3.28283 1.26615e-13 0)
(3.28283 4.88375e-14 0)
(3.28283 2.51377e-15 0)
(3.28283 -1.924e-14 0)
(3.28283 -1.3619e-14 0)
(3.28283 -1.86599e-14 0)
(3.28283 -3.22789e-14 0)
(3.28283 -4.86417e-14 0)
(3.28283 1.14186e-14 0)
(3.28283 8.23376e-14 0)
(3.28283 8.82619e-14 0)
(3.28283 8.60182e-14 0)
(3.28283 5.69832e-14 0)
(3.28283 -7.11456e-15 0)
(3.28283 -7.00088e-14 0)
(3.28283 -6.79917e-14 0)
(3.28283 -7.13223e-14 0)
(3.28283 -1.43071e-13 0)
(3.28283 -1.22575e-13 0)
(3.28283 -1.37867e-13 0)
(3.28283 -2.26039e-15 0)
(3.28283 6.1844e-14 0)
(3.28283 2.05569e-14 0)
(3.28283 1.19187e-14 0)
(3.28283 3.54995e-14 0)
(3.28283 3.73064e-15 0)
(3.28283 -3.95068e-14 0)
(3.28283 -1.1662e-13 0)
(3.28283 -1.38057e-13 0)
(3.28283 -8.98855e-14 0)
(3.28283 -9.15191e-14 0)
(3.28283 -1.00227e-13 0)
(3.28283 -4.59746e-14 0)
(3.28283 -1.20964e-13 0)
(3.28283 -1.56307e-13 0)
(3.28283 -1.50489e-13 0)
(3.28283 -1.37294e-13 0)
(3.28283 -6.91586e-14 0)
(3.28283 3.58595e-14 0)
(3.28283 1.19647e-13 0)
(3.28283 6.36077e-14 0)
(3.28283 -2.33412e-15 0)
(3.28283 3.95502e-14 0)
(3.28283 -2.72347e-14 0)
(3.28283 -2.48743e-14 0)
(3.28283 7.07789e-15 0)
(3.28283 -1.85665e-14 0)
(3.28283 -6.14039e-14 0)
(3.28283 -3.2919e-14 0)
(3.28283 -9.06823e-15 0)
(3.28283 7.98438e-14 0)
(3.28283 7.06822e-14 0)
(3.28283 6.98754e-14 0)
(3.28283 3.26156e-14 0)
(3.28283 -6.63415e-14 0)
(3.28283 -1.3325e-13 0)
(3.28283 -1.49379e-13 0)
(3.28283 -9.646e-14 0)
(3.28283 -7.96671e-14 0)
(3.28283 -1.62528e-14 0)
(3.28283 -9.2396e-14 0)
(3.28283 -1.15037e-13 0)
(3.28283 -1.14693e-13 0)
(3.28283 -7.80035e-14 0)
(3.28283 -7.83802e-15 0)
(3.28283 -3.36625e-14 0)
(3.28283 -7.42061e-14 0)
(3.28283 -4.18306e-14 0)
(3.28283 -1.55797e-13 0)
(3.28283 -2.7122e-13 0)
(3.28283 -2.51857e-13 0)
(3.28283 -1.56567e-13 0)
(3.28283 -1.18064e-13 0)
(3.28283 -1.73303e-13 0)
(3.28283 -1.88879e-13 0)
(3.28283 -2.77485e-13 0)
(3.28283 -2.8708e-13 0)
(3.28283 -2.19081e-13 0)
(3.28283 -8.37045e-14 0)
(3.28283 -2.04269e-14 0)
(3.28283 -2.24772e-14 0)
(3.28283 -4.85811e-14 0)
(3.28283 -6.7845e-15 0)
(3.28283 -3.25056e-15 0)
(3.28283 -4.67947e-14 0)
(3.28283 -4.00569e-14 0)
(3.28283 -3.88267e-14 0)
(3.28283 -9.60166e-16 0)
(3.28283 1.31856e-14 0)
(3.28283 4.53178e-14 0)
(3.28283 7.54764e-14 0)
(3.28283 1.00811e-13 0)
(3.28283 5.14422e-14 0)
(3.28283 -3.33391e-16 0)
(3.28283 -1.10819e-14 0)
(3.28283 -7.19891e-14 0)
(3.28283 -1.13453e-13 0)
(3.28283 -4.73548e-14 0)
(3.28283 -4.48044e-14 0)
(3.28283 -3.54128e-14 0)
(3.28283 -2.06216e-13 0)
(3.28283 -2.88386e-13 0)
(3.28283 -2.57668e-13 0)
(3.28283 -1.18377e-13 0)
(3.28283 -5.5823e-14 0)
(3.28283 -5.6013e-14 0)
(3.28283 -1.56827e-14 0)
(3.28283 -3.4466e-14 0)
(3.28283 -1.12986e-13 0)
(3.28283 -2.38748e-13 0)
(3.28283 -3.69707e-13 0)
(3.28283 -3.57362e-13 0)
(3.28283 -2.9086e-13 0)
(3.28283 -2.00881e-13 0)
(3.28283 -1.71566e-13 0)
(3.28283 -1.62701e-13 0)
(3.28283 -1.68769e-13 0)
(3.28283 -2.01738e-13 0)
(3.28283 -1.64662e-13 0)
(3.28283 -6.63948e-14 0)
(3.28283 -6.27208e-14 0)
(3.28283 -7.81309e-14 0)
(3.28283 1.35023e-15 0)
(3.28283 4.18672e-14 0)
(3.28283 3.90834e-14 0)
(3.28283 -7.08456e-15 0)
(3.28283 1.72496e-14 0)
(3.28283 9.64567e-14 0)
(3.28283 1.19887e-13 0)
(3.28283 8.02339e-14 0)
(3.28283 -1.05185e-14 0)
(3.28283 3.96068e-15 0)
(3.28283 1.90966e-14 0)
(3.28283 8.03472e-16 0)
(3.28283 -1.29756e-14 0)
(3.28283 -2.44142e-14 0)
(3.28283 -8.49313e-14 0)
(3.28283 -6.60714e-14 0)
(3.28283 -6.08905e-14 0)
(3.28283 -1.24421e-13 0)
(3.28283 -9.21392e-14 0)
(3.28283 -1.14466e-13 0)
(3.28283 -2.05719e-13 0)
(3.28283 -1.95267e-13 0)
(3.28283 -1.67589e-13 0)
(3.28283 -9.08157e-14 0)
(3.28283 -1.01111e-13 0)
(3.28283 -1.69626e-13 0)
(3.28283 -2.18214e-13 0)
(3.28283 -2.2959e-13 0)
(3.28283 -2.25162e-13 0)
(3.28283 -2.23699e-13 0)
(3.28283 -2.48296e-13 0)
(3.28283 -2.34577e-13 0)
(3.28283 -2.19161e-13 0)
(3.28283 -1.47099e-13 0)
(3.28283 -7.04488e-14 0)
(3.28283 -1.17464e-13 0)
(3.28283 -1.43471e-13 0)
(3.28283 -1.7218e-13 0)
(3.28283 -1.77577e-13 0)
(3.28283 -1.66763e-13 0)
(3.28283 -2.41375e-15 0)
(3.28283 1.946e-14 0)
(3.28283 3.28923e-14 0)
(3.28283 6.34876e-14 0)
(3.28283 6.23174e-14 0)
(3.28283 3.93601e-14 0)
(3.28283 1.52726e-14 0)
(3.28283 -5.6243e-14 0)
(3.28283 -8.91754e-14 0)
(3.28283 -4.47311e-14 0)
(3.28283 8.00972e-14 0)
(3.28283 1.58961e-13 0)
(3.28283 1.42778e-13 0)
(3.28283 2.73381e-14 0)
(3.28283 -9.10157e-16 0)
(3.28283 -7.54797e-14 0)
(3.28283 2.79682e-14 0)
(3.28283 -1.69129e-14 0)
(3.28283 -3.77999e-14 0)
(3.28283 -5.36226e-14 0)
(3.28283 -1.77307e-13 0)
(3.28283 -2.07002e-13 0)
(3.28283 -1.04818e-13 0)
(3.28283 -6.1814e-14 0)
(3.28283 -1.65342e-13 0)
(3.28283 -2.35307e-13 0)
(3.28283 -2.42369e-13 0)
(3.28283 -2.6867e-13 0)
(3.28283 -2.43045e-13 0)
(3.28283 -2.02848e-13 0)
(3.28283 -1.96504e-13 0)
(3.28283 -1.77007e-13 0)
(3.28283 -1.64045e-13 0)
(3.28283 -1.40351e-13 0)
(3.28283 -1.38021e-13 0)
(3.28283 -1.72073e-13 0)
(3.28283 -2.24205e-13 0)
(3.28283 -2.94621e-13 0)
(3.28283 -3.61866e-13 0)
(3.28283 -3.335e-13 0)
(3.28283 -1.78731e-14 0)
(3.28283 -2.8945e-14 0)
(3.28283 6.83451e-16 0)
(3.28283 2.15637e-14 0)
(3.28283 3.50427e-14 0)
(3.28283 1.98468e-14 0)
(3.28283 -5.60964e-14 0)
(3.28283 -8.71184e-14 0)
(3.28283 -2.1427e-14 0)
(3.28283 3.76598e-14 0)
(3.28283 4.09337e-14 0)
(3.28283 9.64633e-14 0)
(3.28283 9.85203e-14 0)
(3.28283 5.9587e-14 0)
(3.28283 5.33192e-14 0)
(3.28283 3.58129e-14 0)
(3.28283 3.36325e-14 0)
(3.28283 5.27658e-14 0)
(3.28283 1.34457e-14 0)
(3.28283 -9.645e-15 0)
(3.28283 -1.58861e-14 0)
(3.28283 -3.20889e-14 0)
(3.28283 -9.76835e-15 0)
(3.28283 -6.59881e-14 0)
(3.28283 -6.08572e-14 0)
(3.28283 -7.1509e-14 0)
(3.28283 -1.22528e-13 0)
(3.28283 -1.96254e-13 0)
(3.28283 -2.20235e-13 0)
(3.28283 -2.02808e-13 0)