/*--------------------------------*- C++ -*----------------------------------*\
| =========                 |                                                 |
| \\      /  F ield         | OpenFOAM: The Open Source CFD Toolbox           |
|  \\    /   O peration     | Version:  2206                                  |
|   \\  /    A nd           | Website:  www.openfoam.com                      |
|    \\/     M anipulation  |                                                 |
\*---------------------------------------------------------------------------*/
FoamFile
{
    version     2.0;
    format      ascii;
    arch        "LSB;label=32;scalar=64";
    class       volVectorField;
    location    "0.14";
    object      U;
}
// * * * * * * * * * * * * * * * * * * * * * * * * * * * * * * * * * * * * * //

dimensions      [0 1 -1 0 0 0 0];

internalField   nonuniform List<vector> 
4800
(
(5.22222 9.35828e-15 0)
(5.22222 7.32126e-15 0)
(5.22222 4.32208e-14 0)
(5.22222 8.02039e-14 0)
(5.22222 1.10279e-13 0)
(5.22222 1.10466e-13 0)
(5.22222 7.46729e-14 0)
(5.22222 2.15837e-14 0)
(5.22222 1.5506e-14 0)
(5.22222 4.4451e-14 0)
(5.22222 6.45645e-14 0)
(5.22222 7.35294e-14 0)
(5.22222 6.3741e-14 0)
(5.22222 2.35041e-14 0)
(5.22222 5.68431e-15 0)
(5.22222 3.16655e-14 0)
(5.22222 7.37161e-14 0)
(5.22222 8.98555e-14 0)
(5.22222 4.87117e-14 0)
(5.22222 6.05104e-14 0)
(5.22222 3.31857e-14 0)
(5.22222 6.95787e-15 0)
(5.22222 2.19705e-15 0)
(5.22222 5.2109e-15 0)
(5.22222 1.12753e-14 0)
(5.22222 4.55212e-14 0)
(5.22222 7.41995e-14 0)
(5.22222 6.1704e-14 0)
(5.22222 3.94935e-14 0)
(5.22222 3.62729e-15 0)
(5.22222 -3.57962e-14 0)
(5.22222 -5.51095e-14 0)
(5.22222 -6.98387e-14 0)
(5.22222 -4.85317e-14 0)
(5.22222 3.68697e-14 0)
(5.22222 6.16006e-14 0)
(5.22222 6.60314e-14 0)
(5.22222 -1.02684e-15 0)
(5.22222 -2.24939e-14 0)
(5.22222 -2.76948e-14 0)
(5.22222 1.16353e-14 0)
(5.22222 2.21872e-14 0)
(5.22222 4.60313e-14 0)
(5.22222 1.05171e-13 0)
(5.22222 1.04821e-13 0)
(5.22222 5.44027e-14 0)
(5.22222 -1.96201e-14 0)
(5.22222 -3.83566e-14 0)
(5.22222 -3.08953e-14 0)
(5.22222 -3.18255e-14 0)
(5.22222 -2.24139e-14 0)
(5.22222 -6.7345e-16 0)
(5.22222 1.06252e-14 0)
(5.22222 -6.31109e-15 0)
(5.22222 -1.75497e-14 0)
(5.22222 -7.06122e-15 0)
(5.22222 4.12104e-14 0)
(5.22222 1.00687e-13 0)
(5.22222 9.38195e-14 0)
(5.22222 7.26659e-14 0)
(5.22222 7.98971e-14 0)
(5.22222 6.04738e-14 0)
(5.22222 7.39161e-14 0)
(5.22222 9.39596e-14 0)
(5.22222 1.06705e-13 0)
(5.22222 1.65645e-13 0)
(5.22222 1.68592e-13 0)
(5.22222 1.60851e-13 0)
(5.22222 1.50826e-13 0)
(5.22222 -1.15853e-14 0)
(5.22222 -1.08879e-13 0)
(5.22222 -1.37497e-13 0)
(5.22222 -1.55704e-13 0)
(5.22222 -1.44388e-13 0)
(5.22222 -8.07106e-14 0)
(5.22222 5.96436e-15 0)
(5.22222 2.75248e-14 0)
(5.22222 1.36357e-15 0)
(5.22222 -5.84434e-15 0)
(5.22222 -5.27684e-14 0)
(5.22222 -5.77766e-15 0)
(5.22222 -2.25372e-14 0)
(5.22222 -4.4471e-14 0)
(5.22222 -6.26442e-14 0)
(5.22222 -8.79352e-14 0)
(5.22222 -1.30763e-13 0)
(5.22222 -1.30016e-13 0)
(5.22222 -7.42995e-14 0)
(5.22222 -3.14688e-14 0)
(5.22222 -7.15857e-14 0)
(5.22222 -1.02141e-13 0)
(5.22222 -1.14576e-13 0)
(5.22222 -7.48063e-14 0)
(5.22222 -6.60947e-14 0)
(5.22222 -1.69096e-14 0)
(5.22222 -4.48077e-15 0)
(5.22222 -3.16321e-14 0)
(5.22222 6.78717e-14 0)
(5.22222 1.25835e-13 0)
(5.22222 1.13586e-13 0)
(5.22222 9.67034e-14 0)
(5.22222 1.22761e-13 0)
(5.22222 1.37664e-13 0)
(5.22222 1.58831e-13 0)
(5.22222 1.74687e-13 0)
(5.22222 1.76637e-13 0)
(5.22222 1.82181e-13 0)
(5.22222 1.52616e-13 0)
(5.22222 1.08119e-13 0)
(5.22222 2.53377e-16 0)
(5.22222 -7.28726e-14 0)
(5.22222 -8.14907e-14 0)
(5.22222 -9.58265e-14 0)
(5.22222 -2.70913e-14 0)
(5.22222 -1.04385e-14 0)
(5.22222 -1.43825e-14 0)
(5.22222 -8.8582e-15 0)
(5.22222 2.20605e-14 0)
(5.22222 3.06386e-14 0)
(5.22222 4.8237e-14 0)
(5.22222 3.29724e-15 0)
(5.22222 1.96367e-15 0)
(5.22222 -2.03468e-14 0)
(5.22222 -3.45526e-14 0)
(5.22222 -6.02404e-14 0)
(5.22222 -6.16306e-14 0)
(5.22222 -3.33658e-14 0)
(5.22222 -2.34274e-14 0)
(5.22222 -2.64346e-14 0)
(5.22222 -3.1072e-14 0)
(5.22222 -8.99422e-14 0)
(5.22222 -7.53397e-14 0)
(5.22222 -5.97336e-14 0)
(5.22222 -3.79432e-14 0)
(5.22222 2.95718e-15 0)
(5.22222 3.14221e-14 0)
(5.22222 3.13988e-14 0)
(5.22222 2.22705e-14 0)
(5.22222 4.88284e-14 0)
(5.22222 1.08575e-13 0)
(5.22222 9.52965e-14 0)
(5.22222 2.1127e-14 0)
(5.22222 1.42058e-14 0)
(5.22222 1.02551e-14 0)
(5.22222 -1.12686e-15 0)
(5.22222 -2.51177e-14 0)
(5.22222 1.46359e-15 0)
(5.22222 1.43825e-14 0)
(5.22222 7.738e-15 0)
(5.22222 2.74381e-15 0)
(5.22222 -1.50059e-14 0)
(5.22222 -3.71331e-14 0)
(5.22222 -1.86265e-14 0)
(5.22222 1.53126e-14 0)
(5.22222 4.0447e-14 0)
(5.22222 5.96536e-14 0)
(5.22222 3.70797e-14 0)
(5.22222 -6.17773e-15 0)
(5.22222 3.14721e-15 0)
(5.22222 -5.60726e-14 0)
(5.22222 3.71397e-15 0)
(5.22222 2.34807e-14 0)
(5.22222 2.66846e-14 0)
(5.22222 1.35423e-14 0)
(5.22222 1.62861e-14 0)
(5.22222 -2.31707e-15 0)
(5.22222 -1.44425e-14 0)
(5.22222 -2.68613e-14 0)
(5.22222 -2.22505e-14 0)
(5.22222 -3.43026e-14 0)
(5.22222 -6.30042e-14 0)
(5.22222 3.03019e-14 0)
(5.22222 5.30225e-14 0)
(5.22222 8.42112e-14 0)
(5.22222 9.83637e-14 0)
(5.22222 9.87671e-14 0)
(5.22222 1.25688e-14 0)
(5.22222 -9.17592e-14 0)
(5.22222 -7.43295e-14 0)
(5.22222 -6.63281e-14 0)
(5.22222 -4.55412e-15 0)
(5.22222 3.68297e-14 0)
(5.22222 1.48359e-14 0)
(5.22222 -9.42229e-14 0)
(5.22222 -1.10309e-13 0)
(5.22222 -9.47797e-14 0)
(5.22222 -1.10302e-13 0)
(5.22222 -7.62032e-14 0)
(5.22222 -4.6588e-14 0)
(5.22222 6.29109e-15 0)
(5.22222 3.72898e-14 0)
(5.22222 5.0442e-14 0)
(5.22222 6.27975e-14 0)
(5.22222 6.09772e-14 0)
(5.22222 6.73083e-14 0)
(5.22222 8.45979e-14 0)
(5.22222 9.62066e-14 0)
(5.22222 7.77868e-14 0)
(5.22222 1.16153e-14 0)
(5.22222 -1.09156e-13 0)
(5.22222 -2.07736e-14 0)
(5.22222 -3.6893e-14 0)
(5.22222 -2.59145e-14 0)
(5.22222 -6.10105e-16 0)
(5.22222 4.60079e-14 0)
(5.22222 7.21091e-14 0)
(5.22222 6.07105e-14 0)
(5.22222 3.4956e-14 0)
(5.22222 1.942e-14 0)
(5.22222 4.26374e-14 0)
(5.22222 7.18691e-14 0)
(5.22222 1.06332e-13 0)
(5.22222 1.00501e-13 0)
(5.22222 8.48013e-14 0)
(5.22222 3.6753e-14 0)
(5.22222 -4.66947e-14 0)
(5.22222 -1.22735e-13 0)
(5.22222 -1.84862e-13 0)
(5.22222 -2.36171e-13 0)
(5.22222 -2.24949e-13 0)
(5.22222 -1.42298e-13 0)
(5.22222 2.07369e-15 0)
(5.22222 2.86449e-14 0)
(5.22222 -8.68483e-15 0)
(5.22222 -9.60499e-15 0)
(5.22222 1.5626e-14 0)
(5.22222 4.15405e-15 0)
(5.22222 -5.32859e-14 0)
(5.22222 -5.95203e-14 0)
(5.22222 -2.66713e-16 0)
(5.22222 1.04785e-14 0)
(5.22222 4.6488e-14 0)
(5.22222 8.58448e-14 0)
(5.22222 6.70116e-14 0)
(5.22222 2.99152e-14 0)
(5.22222 6.82451e-15 0)
(5.22222 2.94884e-14 0)
(5.22222 7.48229e-14 0)
(5.22222 1.06785e-13 0)
(5.22222 1.4957e-13 0)
(5.22222 7.62132e-15 0)
(5.22222 -5.94103e-15 0)
(5.22222 -3.28723e-15 0)
(5.22222 1.08052e-14 0)
(5.22222 1.94967e-14 0)
(5.22222 2.57678e-14 0)
(5.22222 8.73151e-15 0)
(5.22222 -2.93617e-14 0)
(5.22222 -2.37308e-14 0)
(5.22222 1.82732e-14 0)
(5.22222 4.92952e-14 0)
(5.22222 4.27707e-14 0)
(5.22222 -7.43462e-16 0)
(5.22222 -2.70113e-14 0)
(5.22222 -2.65146e-14 0)
(5.22222 -6.55513e-14 0)
(5.22222 -1.20294e-13 0)
(5.22222 -1.3295e-13 0)
(5.22222 -1.12253e-13 0)
(5.22222 -4.69814e-14 0)
(5.22222 -2.41975e-14 0)
(5.22222 5.11855e-14 0)
(5.22222 3.33524e-14 0)
(5.22222 4.0617e-14 0)
(5.22222 9.57899e-14 0)
(5.22222 9.34028e-14 0)
(5.22222 5.45494e-14 0)
(5.22222 1.01317e-14 0)
(5.22222 6.93786e-15 0)
(5.22222 -6.74383e-14 0)
(5.22222 -7.49129e-14 0)
(5.22222 -4.90418e-14 0)
(5.22222 7.49796e-15 0)
(5.22222 1.94367e-15 0)
(5.22222 -3.73865e-14 0)
(5.22222 -1.12409e-13 0)
(5.22222 -1.55007e-13 0)
(5.22222 1.50093e-14 0)
(5.22222 2.9225e-14 0)
(5.22222 -1.31743e-14 0)
(5.22222 6.50112e-15 0)
(5.22222 1.13553e-14 0)
(5.22222 6.27108e-15 0)
(5.22222 -3.30857e-14 0)
(5.22222 -6.51179e-14 0)
(5.22222 -5.11522e-14 0)
(5.22222 -6.26308e-14 0)
(5.22222 -6.59314e-14 0)
(5.22222 -6.45378e-14 0)
(5.22222 -3.78965e-14 0)
(5.22222 -3.14954e-14 0)
(5.22222 -5.9587e-14 0)
(5.22222 -5.45694e-14 0)
(5.22222 -9.92171e-14 0)
(5.22222 -1.02551e-13 0)
(5.22222 -4.16872e-14 0)
(5.22222 3.95235e-14 0)
(5.22222 6.31176e-14 0)
(5.22222 5.805e-14 0)
(5.22222 3.72964e-14 0)
(5.22222 4.61446e-14 0)
(5.22222 2.92951e-14 0)
(5.22222 2.31973e-14 0)
(5.22222 1.01181e-13 0)
(5.22222 1.34703e-13 0)
(5.22222 8.08573e-14 0)
(5.22222 7.45795e-14 0)
(5.22222 9.75969e-14 0)
(5.22222 4.71115e-14 0)
(5.22222 -3.44626e-14 0)
(5.22222 -6.83485e-14 0)
(5.22222 -9.41429e-14 0)
(5.22222 -2.79748e-14 0)
(5.22222 1.16687e-14 0)
(5.22222 1.49092e-14 0)
(5.22222 5.37293e-14 0)
(5.22222 5.78367e-14 0)
(5.22222 1.87766e-14 0)
(5.22222 -2.38374e-15 0)
(5.22222 -2.04493e-14 0)
(5.22222 -1.56694e-15 0)
(5.22222 2.43375e-15 0)
(5.22222 2.97051e-15 0)
(5.22222 5.14756e-15 0)
(5.22222 1.75864e-14 0)
(5.22222 3.63229e-14 0)
(5.22222 9.42963e-14 0)
(5.22222 1.10379e-13 0)
(5.22222 4.60846e-14 0)
(5.22222 -1.27989e-14 0)
(5.22222 -1.08099e-13 0)
(5.22222 -1.78511e-13 0)
(5.22222 -1.84785e-13 0)
(5.22222 -1.21524e-13 0)
(5.22222 -1.02718e-13 0)
(5.22222 -2.59878e-14 0)
(5.22222 9.60833e-15 0)
(5.22222 6.32443e-15 0)
(5.22222 2.3004e-16 0)
(5.22222 4.47411e-15 0)
(5.22222 1.93e-14 0)
(5.22222 6.54113e-15 0)
(5.22222 6.94987e-14 0)
(5.22222 5.6023e-14 0)
(5.22222 9.58165e-15 0)
(5.22222 2.46743e-14 0)
(5.22222 3.52794e-14 0)
(5.22222 4.6488e-14 0)
(5.22222 -2.29506e-14 0)
(5.22222 -1.16343e-13 0)
(5.22222 -1.45305e-13 0)
(5.22222 -1.58224e-13 0)
(5.22222 -1.28069e-13 0)
(5.22222 -7.36561e-14 0)
(5.22222 -5.31258e-14 0)
(5.22222 -4.6308e-15 0)
(5.22222 2.15037e-14 0)
(5.22222 2.01968e-14 0)
(5.22222 5.0152e-14 0)
(5.22222 7.97587e-14 0)
(5.22222 5.78767e-15 0)
(5.22222 1.24321e-14 0)
(5.22222 2.57811e-14 0)
(5.22222 3.75932e-14 0)
(5.22222 3.36958e-14 0)
(5.22222 1.69396e-14 0)
(5.22222 1.92933e-14 0)
(5.22222 1.27855e-14 0)
(5.22222 3.99369e-14 0)
(5.22222 -3.97635e-14 0)
(5.22222 -8.25976e-14 0)
(5.22222 -9.68167e-14 0)
(5.22222 -1.21604e-13 0)
(5.22222 -1.09356e-13 0)
(5.22222 -7.90603e-14 0)
(5.22222 -8.38778e-14 0)
(5.22222 -8.44112e-14 0)
(5.22222 -2.91984e-14 0)
(5.22222 2.41308e-14 0)
(5.22222 3.15688e-14 0)
(5.22222 2.38941e-14 0)
(5.22222 1.46892e-14 0)
(5.22222 1.30089e-14 0)
(5.22222 -5.26658e-14 0)
(5.22222 -6.3691e-14 0)
(5.22222 -3.48694e-14 0)
(5.22222 9.79169e-15 0)
(5.22222 2.27973e-14 0)
(5.22222 4.35542e-14 0)
(5.22222 2.72647e-14 0)
(5.22222 -6.79484e-14 0)
(5.22222 -9.34861e-14 0)
(5.22222 -1.17617e-13 0)
(5.22222 -1.09096e-13 0)
(5.22222 -8.01405e-14 0)
(5.22222 -7.42362e-14 0)
(5.22222 -5.65764e-14 0)
(5.22222 -1.71396e-14 0)
(5.22222 4.32741e-15 0)
(5.22222 1.82013e-14 0)
(5.22222 -1.47692e-15 0)
(5.22222 6.5378e-15 0)
(5.22222 7.94804e-15 0)
(5.22222 -3.30057e-16 0)
(5.22222 -3.20622e-14 0)
(5.22222 -4.37642e-14 0)
(5.22222 -8.85053e-14 0)
(5.22222 -8.78252e-14 0)
(5.22222 -7.58664e-14 0)
(5.22222 -8.52747e-14 0)
(5.22222 -6.72216e-14 0)
(5.22222 -1.80531e-14 0)
(5.22222 -1.52626e-14 0)
(5.22222 -1.99334e-14 0)
(5.22222 -5.06187e-14 0)
(5.22222 -3.41792e-14 0)
(5.22222 -2.15437e-14 0)
(5.22222 3.15955e-14 0)
(5.22222 5.35726e-14 0)
(5.22222 3.2809e-14 0)
(5.22222 -1.93567e-14 0)
(5.22222 -4.41176e-14 0)
(5.22222 -7.60665e-14 0)
(5.22222 -7.66466e-14 0)
(5.22222 -9.48397e-14 0)
(5.22222 -7.37761e-14 0)
(5.22222 -6.59947e-14 0)
(5.22222 -3.78799e-14 0)
(5.22222 -3.23923e-14 0)
(5.22222 -2.1447e-14 0)
(5.22222 -5.86435e-15 0)
(5.22222 3.32257e-14 0)
(5.22222 -3.6473e-15 0)
(5.22222 -2.60378e-15 0)
(5.22222 1.43225e-14 0)
(5.22222 -7.21791e-15 0)
(5.22222 1.59528e-14 0)
(5.22222 4.53012e-14 0)
(5.22222 1.1804e-13 0)
(5.22222 1.20027e-13 0)
(5.22222 -7.42795e-15 0)
(5.22222 -2.36774e-14 0)
(5.22222 -4.29274e-14 0)
(5.22222 -4.53178e-14 0)
(5.22222 -2.28873e-14 0)
(5.22222 -1.63462e-14 0)
(5.22222 -1.47459e-14 0)
(5.22222 -3.02619e-14 0)
(5.22222 -4.2194e-14 0)
(5.22222 -2.80115e-14 0)
(5.22222 -7.42061e-14 0)
(5.22222 -7.77401e-14 0)
(5.22222 -5.59597e-14 0)
(5.22222 -1.49492e-14 0)
(5.22222 1.67662e-14 0)
(5.22222 2.85883e-14 0)
(5.22222 1.38824e-14 0)
(5.22222 -3.14354e-14 0)
(5.22222 -4.38409e-14 0)
(5.22222 -7.42495e-14 0)
(5.22222 -6.57814e-14 0)
(5.22222 -8.00272e-14 0)
(5.22222 -8.69483e-14 0)
(5.22222 -9.89971e-14 0)
(5.22222 -5.45394e-14 0)
(5.22222 -4.65214e-14 0)
(5.22222 -3.90734e-14 0)
(5.22222 -5.59863e-14 0)
(5.22222 -2.88416e-14 0)
(5.22222 2.7098e-14 0)
(5.22222 6.09072e-14 0)
(5.22222 1.48942e-13 0)
(5.22222 1.89033e-13 0)
(5.22222 1.77531e-13 0)
(5.22222 1.3569e-13 0)
(5.22222 5.01453e-14 0)
(5.22222 3.97769e-14 0)
(5.22222 7.81768e-14 0)
(5.22222 1.55557e-13 0)
(5.22222 2.33996e-13 0)
(5.22222 -6.73116e-15 0)
(5.22222 -2.1137e-14 0)
(5.22222 -3.31257e-14 0)
(5.22222 -2.56144e-14 0)
(5.22222 -1.00284e-14 0)
(5.22222 -1.18887e-14 0)
(5.22222 2.38775e-14 0)
(5.22222 3.27457e-14 0)
(5.22222 3.95868e-14 0)
(5.22222 4.12905e-14 0)
(5.22222 1.3319e-14 0)
(5.22222 -3.52194e-14 0)
(5.22222 -1.88766e-14 0)
(5.22222 -1.26989e-14 0)
(5.22222 2.64679e-14 0)
(5.22222 3.34024e-14 0)
(5.22222 5.83434e-16 0)
(5.22222 -6.3801e-14 0)
(5.22222 -1.35377e-13 0)
(5.22222 -1.07649e-13 0)
(5.22222 -1.19657e-13 0)
(5.22222 -1.09419e-13 0)
(5.22222 -5.33459e-14 0)
(5.22222 -2.04402e-14 0)
(5.22222 -2.1417e-14 0)
(5.22222 -6.93653e-14 0)
(5.22222 -6.23074e-14 0)
(5.22222 1.32156e-14 0)
(5.22222 4.64447e-14 0)
(5.22222 1.33893e-13 0)
(5.22222 2.83899e-13 0)
(5.22222 3.10917e-13 0)
(5.22222 2.00021e-13 0)
(5.22222 1.13786e-13 0)
(5.22222 5.15256e-14 0)
(5.22222 7.39328e-14 0)
(5.22222 1.47629e-13 0)
(5.22222 1.62705e-13 0)
(5.22222 1.62458e-13 0)
(5.22222 1.38502e-13 0)
(5.22222 2.18204e-14 0)
(5.22222 3.34091e-14 0)
(5.22222 4.52478e-14 0)
(5.22222 3.1042e-14 0)
(5.22222 2.63712e-15 0)
(5.22222 -5.03087e-15 0)
(5.22222 -1.70629e-14 0)
(5.22222 -1.88699e-15 0)
(5.22222 3.62996e-14 0)
(5.22222 8.3091e-14 0)
(5.22222 1.00791e-13 0)
(5.22222 1.12646e-13 0)
(5.22222 1.32853e-13 0)
(5.22222 8.41145e-14 0)
(5.22222 -3.6893e-14 0)
(5.22222 -9.39796e-14 0)
(5.22222 -1.3793e-13 0)
(5.22222 -1.09426e-13 0)
(5.22222 -5.67831e-14 0)
(5.22222 -3.50894e-14 0)
(5.22222 -3.71464e-14 0)
(5.22222 -1.938e-14 0)
(5.22222 4.8525e-14 0)
(5.22222 9.07523e-14 0)
(5.22222 8.26343e-14 0)
(5.22222 8.96688e-14 0)
(5.22222 4.27907e-14 0)
(5.22222 -6.50379e-14 0)
(5.22222 -6.60014e-14 0)
(5.22222 -4.62947e-14 0)
(5.22222 5.3956e-14 0)
(5.22222 1.40358e-13 0)
(5.22222 1.13673e-13 0)
(5.22222 4.4591e-14 0)
(5.22222 3.74465e-14 0)
(5.22222 3.01352e-14 0)
(5.22222 1.31626e-13 0)
(5.22222 1.95747e-13 0)
(5.22222 1.44768e-13 0)
(5.22222 7.35085e-14 0)
(5.22222 3.26056e-15 0)
(5.22222 3.21556e-14 0)
(5.22222 6.62481e-14 0)
(5.22222 6.83585e-14 0)
(5.22222 2.07302e-14 0)
(5.22222 1.90099e-14 0)
(5.22222 -9.38495e-15 0)
(5.22222 9.15825e-15 0)
(5.22222 3.52628e-14 0)
(5.22222 6.88419e-14 0)
(5.22222 6.68482e-14 0)
(5.22222 4.87751e-14 0)
(5.22222 2.76748e-14 0)
(5.22222 5.44761e-15 0)
(5.22222 -1.1792e-14 0)
(5.22222 -6.3721e-14 0)
(5.22222 -6.98987e-14 0)
(5.22222 -5.18923e-14 0)
(5.22222 1.49759e-14 0)
(5.22222 3.54728e-15 0)
(5.22222 3.26123e-14 0)
(5.22222 6.9412e-14 0)
(5.22222 6.72083e-14 0)
(5.22222 1.55317e-13 0)
(5.22222 2.27156e-13 0)
(5.22222 2.39578e-13 0)
(5.22222 1.60191e-13 0)
(5.22222 2.94618e-14 0)
(5.22222 2.65012e-14 0)
(5.22222 2.43742e-14 0)
(5.22222 4.91885e-14 0)
(5.22222 1.30186e-13 0)
(5.22222 1.87206e-13 0)
(5.22222 1.09219e-13 0)
(5.22222 5.51729e-14 0)
(5.22222 6.33876e-14 0)
(5.22222 7.73467e-16 0)
(5.22222 -1.3476e-13 0)
(5.22222 -1.54577e-13 0)
(5.22222 -1.12842e-13 0)
(5.22222 -1.3259e-14 0)
(5.22222 -2.03769e-14 0)
(5.22222 -2.14237e-14 0)
(5.22222 1.67429e-14 0)
(5.22222 5.21457e-14 0)
(5.22222 3.6503e-14 0)
(5.22222 3.62163e-14 0)
(5.22222 4.74749e-14 0)
(5.22222 7.02388e-14 0)
(5.22222 6.03271e-14 0)
(5.22222 1.22454e-14 0)
(5.22222 -2.29406e-14 0)
(5.22222 -4.39276e-14 0)
(5.22222 -3.51261e-14 0)
(5.22222 3.69064e-14 0)
(5.22222 6.70449e-14 0)
(5.22222 6.68916e-14 0)
(5.22222 7.78234e-14 0)
(5.22222 8.62149e-14 0)
(5.22222 1.00891e-13 0)
(5.22222 1.01864e-13 0)
(5.22222 1.07042e-13 0)
(5.22222 1.14596e-13 0)
(5.22222 1.37577e-13 0)
(5.22222 1.9154e-13 0)
(5.22222 1.50029e-13 0)
(5.22222 7.10989e-14 0)
(5.22222 -1.78231e-14 0)
(5.22222 8.75818e-15 0)
(5.22222 2.77281e-14 0)
(5.22222 6.64781e-14 0)
(5.22222 1.38581e-13 0)
(5.22222 1.7355e-13 0)
(5.22222 8.93488e-16 0)
(5.22222 -6.44711e-14 0)
(5.22222 -5.2339e-14 0)
(5.22222 -6.03438e-14 0)
(5.22222 -1.02411e-13 0)
(5.22222 -1.54923e-13 0)
(5.22222 -1.34704e-13 0)
(5.22222 -1.34023e-15 0)
(5.22222 -7.21791e-15 0)
(5.22222 -1.69229e-14 0)
(5.22222 -9.52164e-15 0)
(5.22222 -1.47959e-14 0)
(5.22222 -2.50643e-14 0)
(5.22222 6.70116e-15 0)
(5.22222 1.57361e-15 0)
(5.22222 1.37824e-14 0)
(5.22222 1.51126e-14 0)
(5.22222 2.35741e-14 0)
(5.22222 -2.74914e-14 0)
(5.22222 -5.64964e-14 0)
(5.22222 -3.96835e-14 0)
(5.22222 4.97153e-14 0)
(5.22222 1.14303e-13 0)
(5.22222 1.68933e-13 0)
(5.22222 2.1031e-13 0)
(5.22222 1.73903e-13 0)
(5.22222 1.37857e-13 0)
(5.22222 4.82983e-14 0)
(5.22222 2.5241e-14 0)
(5.22222 5.23624e-14 0)
(5.22222 1.3303e-13 0)
(5.22222 1.31716e-13 0)
(5.22222 7.37794e-14 0)
(5.22222 3.04353e-14 0)
(5.22222 3.87867e-14 0)
(5.22222 -1.67596e-14 0)
(5.22222 -9.02489e-15 0)
(5.22222 -3.6933e-14 0)
(5.22222 -6.10639e-14 0)
(5.22222 -1.28099e-13 0)
(5.22222 -1.10609e-13 0)
(5.22222 -8.16841e-14 0)
(5.22222 -8.91954e-14 0)
(5.22222 -9.15591e-14 0)
(5.22222 -1.11119e-13 0)
(5.22222 -7.21091e-14 0)
(5.22222 -7.29285e-14 0)
(5.22222 -8.8682e-16 0)
(5.22222 2.41708e-15 0)
(5.22222 -7.22791e-15 0)
(5.22222 -6.50312e-14 0)
(5.22222 -8.85553e-14 0)
(5.22222 -5.85401e-14 0)
(5.22222 -4.38642e-14 0)
(5.22222 -5.32692e-14 0)
(5.22222 -4.06203e-14 0)
(5.22222 2.56011e-14 0)
(5.22222 4.75249e-14 0)
(5.22222 3.26723e-14 0)
(5.22222 -7.64799e-15 0)
(5.22222 -4.20273e-14 0)
(5.22222 -3.44459e-14 0)
(5.22222 6.38944e-14 0)
(5.22222 9.00789e-14 0)
(5.22222 8.4668e-14 0)
(5.22222 7.15324e-14 0)
(5.22222 7.26059e-14 0)
(5.22222 6.63615e-14 0)
(5.22222 -1.04318e-14 0)
(5.22222 -4.68181e-14 0)
(5.22222 -3.34591e-14 0)
(5.22222 -4.0797e-14 0)
(5.22222 -1.69629e-14 0)
(5.22222 5.15756e-14 0)
(5.22222 1.12673e-13 0)
(5.22222 1.20181e-13 0)
(5.22222 -3.02686e-14 0)
(5.22222 -1.333e-13 0)
(5.22222 -1.55827e-13 0)
(5.22222 -1.55654e-13 0)
(5.22222 -1.30593e-13 0)
(5.22222 -6.67115e-14 0)
(5.22222 -2.78781e-14 0)
(5.22222 -2.7158e-14 0)
(5.22222 -5.43427e-16 0)
(5.22222 1.89399e-14 0)
(5.22222 2.82947e-14 0)
(5.22222 2.15371e-15 0)
(5.22222 3.31057e-15 0)
(5.22222 2.65713e-15 0)
(5.22222 -4.38476e-14 0)
(5.22222 -2.28273e-14 0)
(5.22222 -3.12454e-14 0)
(5.22222 -4.70448e-14 0)
(5.22222 -4.2454e-14 0)
(5.22222 -4.26307e-14 0)
(5.22222 -4.31408e-15 0)
(5.22222 1.37124e-14 0)
(5.22222 5.43527e-14 0)
(5.22222 2.09169e-14 0)
(5.22222 -3.63629e-14 0)
(5.22222 -9.98039e-14 0)
(5.22222 -1.04315e-13 0)
(5.22222 -1.1522e-14 0)
(5.22222 -2.20438e-14 0)
(5.22222 -2.15371e-14 0)
(5.22222 -4.6108e-15 0)
(5.22222 1.72096e-14 0)
(5.22222 -9.74835e-15 0)
(5.22222 -7.17091e-14 0)
(5.22222 -1.03295e-13 0)
(5.22222 -1.20034e-13 0)
(5.22222 -1.5306e-14 0)
(5.22222 1.36687e-13 0)
(5.22222 2.17811e-13 0)
(5.22222 2.04782e-13 0)
(5.22222 4.18072e-14 0)
(5.22222 -7.11956e-14 0)
(5.22222 -9.06923e-14 0)
(5.22222 -6.41044e-14 0)
(5.22222 -5.15422e-15 0)
(5.22222 8.57715e-14 0)
(5.22222 1.13403e-13 0)
(5.22222 1.21831e-13 0)
(5.22222 1.27202e-13 0)
(5.22222 1.08352e-13 0)
(5.22222 8.27687e-14 0)
(5.22222 2.19705e-15 0)
(5.22222 1.10019e-16 0)
(5.22222 1.95434e-14 0)
(5.22222 4.14305e-14 0)
(5.22222 7.36961e-14 0)
(5.22222 5.98737e-14 0)
(5.22222 2.07703e-15 0)
(5.22222 -1.60561e-14 0)
(5.22222 -8.95488e-15 0)
(5.22222 -4.46077e-15 0)
(5.22222 -2.40708e-15 0)
(5.22222 -7.02121e-15 0)
(5.22222 -1.46625e-14 0)
(5.22222 -6.34143e-14 0)
(5.22222 -9.07623e-14 0)
(5.22222 -6.42678e-14 0)
(5.22222 -2.12003e-14 0)
(5.22222 -2.90017e-14 0)
(5.22222 -2.85549e-14 0)
(5.22222 -2.24772e-14 0)
(5.22222 -6.02004e-14 0)
(5.22222 -6.92653e-14 0)
(5.22222 1.97001e-14 0)
(5.22222 1.09786e-14 0)
(5.22222 -4.48344e-14 0)
(5.22222 -7.95504e-14 0)
(5.22222 -4.61046e-14 0)
(5.22222 8.66816e-14 0)
(5.22222 1.35017e-13 0)
(5.22222 1.00504e-13 0)
(5.22222 -3.55728e-15 0)
(5.22222 -1.03184e-14 0)
(5.22222 -1.41458e-14 0)
(5.22222 8.94821e-15 0)
(5.22222 1.91933e-14 0)
(5.22222 1.7643e-14 0)
(5.22222 1.40224e-14 0)
(5.22222 2.60078e-14 0)
(5.22222 1.96934e-14 0)
(5.22222 4.17897e-14 0)
(5.22222 -3.3039e-15 0)
(5.22222 -1.78731e-14 0)
(5.22222 -2.89983e-14 0)
(5.22222 4.68081e-15 0)
(5.22222 6.33743e-14 0)
(5.22222 9.82303e-14 0)
(5.22222 7.32226e-14 0)
(5.22222 2.60778e-14 0)
(5.22222 3.18688e-14 0)
(5.22222 6.52013e-14 0)
(5.22222 2.46276e-14 0)
(5.22222 -3.00052e-16 0)
(5.22222 -1.65262e-14 0)
(5.22222 1.63828e-14 0)
(5.22222 4.17972e-14 0)
(5.22222 1.81998e-14 0)
(5.22222 -4.68014e-14 0)
(5.22222 -5.28025e-14 0)
(5.22222 -7.96471e-14 0)
(5.22222 -7.47762e-14 0)
(5.22222 -1.63828e-14 0)
(5.22222 5.46294e-14 0)
(5.22222 9.63033e-14 0)
(5.22222 1.21048e-13 0)
(5.22222 1.01811e-13 0)
(5.22222 1.48326e-14 0)
(5.22222 -2.87416e-14 0)
(5.22222 -3.20722e-14 0)
(5.22222 7.60865e-14 0)
(5.22222 1.14853e-13 0)
(5.22222 9.26093e-14 0)
(5.22222 2.95684e-14 0)
(5.22222 9.74502e-15 0)
(5.22222 -1.23321e-14 0)
(5.22222 -3.69731e-14 0)
(5.22222 -7.77134e-15 0)
(5.22222 -7.17791e-15 0)
(5.22222 4.21373e-14 0)
(5.22222 1.02944e-13 0)
(5.22222 1.48078e-13 0)
(5.22222 -2.8905e-15 0)
(5.22222 -9.21826e-15 0)
(5.22222 -6.43444e-15 0)
(5.22222 9.49497e-15 0)
(5.22222 3.03552e-14 0)
(5.22222 6.67315e-14 0)
(5.22222 8.80952e-14 0)
(5.22222 6.80951e-14 0)
(5.22222 4.13771e-14 0)
(5.22222 -5.09955e-14 0)
(5.22222 -8.73584e-14 0)
(5.22222 -6.3571e-14 0)
(5.22222 3.90634e-14 0)
(5.22222 1.05788e-13 0)
(5.22222 9.51198e-14 0)
(5.22222 5.43761e-15 0)
(5.22222 -3.71064e-15 0)
(5.22222 2.40041e-16 0)
(5.22222 1.49959e-14 0)
(5.22222 2.11703e-14 0)
(5.22222 1.20844e-13 0)
(5.22222 1.82578e-13 0)
(5.22222 1.39134e-13 0)
(5.22222 1.1705e-13 0)
(5.22222 1.17354e-13 0)
(5.22222 1.42651e-13 0)
(5.22222 9.79202e-14 0)
(5.22222 7.79535e-14 0)
(5.22222 7.12956e-14 0)
(5.22222 1.06502e-13 0)
(5.22222 1.25308e-13 0)
(5.22222 9.2726e-14 0)
(5.22222 5.26491e-14 0)
(5.22222 9.67834e-15 0)
(5.22222 5.94436e-15 0)
(5.22222 -2.23372e-14 0)
(5.22222 -1.20354e-15 0)
(5.22222 4.51378e-14 0)
(5.22222 4.71315e-14 0)
(5.22222 1.93462e-14 0)
(5.22222 1.64362e-15 0)
(5.22222 1.5726e-14 0)
(5.22222 6.55046e-14 0)
(5.22222 7.05288e-14 0)
(5.22222 3.97602e-14 0)
(5.22222 1.28856e-14 0)
(5.22222 6.9212e-15 0)
(5.22222 9.93505e-16 0)
(5.22222 -5.9597e-14 0)
(5.22222 -1.38147e-13 0)
(5.22222 -1.19037e-13 0)
(5.22222 -3.4516e-14 0)
(5.22222 1.60128e-14 0)
(5.22222 1.62895e-14 0)
(5.22222 5.95103e-14 0)
(5.22222 7.58131e-14 0)
(5.22222 6.90253e-14 0)
(5.22222 6.5818e-14 0)
(5.22222 7.64232e-14 0)
(5.22222 8.91487e-14 0)
(5.22222 7.88736e-14 0)
(5.22222 9.65867e-14 0)
(5.22222 7.32827e-14 0)
(5.22222 5.42294e-14 0)
(5.22222 2.12837e-14 0)
(5.22222 3.78232e-14 0)
(5.22222 3.84633e-14 0)
(5.22222 -2.75681e-14 0)
(5.22222 -6.81418e-14 0)
(5.22222 1.77497e-14 0)
(5.22222 2.31173e-14 0)
(5.22222 -1.83232e-14 0)
(5.22222 -4.06404e-14 0)
(5.22222 -3.25856e-14 0)
(5.22222 -2.53777e-14 0)
(5.22222 -6.85985e-14 0)
(5.22222 -7.04055e-14 0)
(5.22222 -4.81817e-14 0)
(5.22222 -7.26292e-14 0)
(5.22222 -8.60214e-14 0)
(5.22222 -3.34058e-15 0)
(5.22222 4.61746e-15 0)
(5.22222 2.1437e-15 0)
(5.22222 -2.48176e-14 0)
(5.22222 -5.70732e-14 0)
(5.22222 -5.85901e-14 0)
(5.22222 -3.83933e-14 0)
(5.22222 -9.0549e-15 0)
(5.22222 -1.65329e-14 0)
(5.22222 1.10152e-14 0)
(5.22222 3.42192e-14 0)
(5.22222 5.5813e-14 0)
(5.22222 2.85449e-14 0)
(5.22222 -5.65098e-15 0)
(5.22222 1.5376e-14 0)
(5.22222 5.31125e-14 0)
(5.22222 -1.51926e-14 0)
(5.22222 -1.927e-14 0)
(5.22222 -4.26007e-14 0)
(5.22222 -4.21106e-14 0)
(5.22222 -3.37858e-14 0)
(5.22222 -2.18338e-14 0)
(5.22222 2.36041e-15 0)
(5.22222 -9.41396e-14 0)
(5.22222 -1.32346e-13 0)
(5.22222 -1.13906e-13 0)
(5.22222 -5.73166e-14 0)
(5.22222 -6.78617e-14 0)
(5.22222 -1.02798e-13 0)
(5.22222 -7.99305e-14 0)
(5.22222 -1.63162e-14 0)
(5.22222 4.32608e-14 0)
(5.22222 7.25592e-14 0)
(5.22222 5.29892e-14 0)
(5.22222 9.10157e-16 0)
(5.22222 -6.39777e-15 0)
(5.22222 -3.01385e-14 0)
(5.22222 -6.67015e-14 0)
(5.22222 -1.02164e-13 0)
(5.22222 -1.0421e-13 0)
(5.22222 -2.16704e-16 0)
(5.22222 -9.26827e-16 0)
(5.22222 -2.3014e-14 0)
(5.22222 -3.94101e-14 0)
(5.22222 -1.48226e-14 0)
(5.22222 -9.8617e-15 0)
(5.22222 1.69929e-14 0)
(5.22222 6.82118e-14 0)
(5.22222 7.03455e-14 0)
(5.22222 1.12609e-13 0)
(5.22222 1.22605e-13 0)
(5.22222 1.06708e-13 0)
(5.22222 6.42878e-14 0)
(5.22222 5.58596e-14 0)
(5.22222 5.72199e-14 0)
(5.22222 -6.1944e-15 0)
(5.22222 -1.41411e-13 0)
(5.22222 -2.18888e-13 0)
(5.22222 -2.08229e-13 0)
(5.22222 -1.17804e-13 0)
(5.22222 -9.22159e-14 0)
(5.22222 -9.13558e-14 0)
(5.22222 -9.40696e-14 0)
(5.22222 -9.74135e-14 0)
(5.22222 -9.60666e-14 0)
(5.22222 -8.08906e-14 0)
(5.22222 -2.00035e-14 0)
(5.22222 2.26606e-14 0)
(5.22222 8.15808e-15 0)
(5.22222 -1.50193e-14 0)
(5.22222 -7.56131e-15 0)
(5.22222 1.76997e-14 0)
(5.22222 6.70482e-14 0)
(5.22222 6.88052e-14 0)
(5.22222 4.53412e-14 0)
(5.22222 -4.04737e-14 0)
(5.22222 -1.147e-13 0)
(5.22222 -1.28502e-13 0)
(5.22222 -1.40518e-13 0)
(5.22222 -9.39323e-14 0)
(5.22222 -4.18072e-15 0)
(5.22222 -1.63162e-14 0)
(5.22222 -1.32123e-14 0)
(5.22222 -5.63764e-15 0)
(5.22222 -3.16721e-15 0)
(5.22222 1.50226e-14 0)
(5.22222 -1.39057e-14 0)
(5.22222 -2.06002e-14 0)
(5.22222 -5.21757e-15 0)
(5.22222 1.20021e-15 0)
(5.22222 -1.06485e-14 0)
(5.22222 2.27573e-14 0)
(5.22222 8.07373e-14 0)
(5.22222 9.76735e-14 0)
(5.22222 6.83718e-14 0)
(5.22222 7.13457e-16 0)
(5.22222 -7.66799e-14 0)
(5.22222 -9.92205e-14 0)
(5.22222 -1.19804e-13 0)
(5.22222 -1.11149e-13 0)
(5.22222 -3.73464e-14 0)
(5.22222 -1.22121e-14 0)
(5.22222 -4.8255e-14 0)
(5.22222 -1.56727e-14 0)
(5.22222 -4.38076e-15 0)
(5.22222 -9.89838e-15 0)
(5.22222 6.00337e-14 0)
(5.22222 1.28225e-13 0)
(5.22222 1.42098e-13 0)
(5.22222 1.28739e-13 0)
(5.22222 3.30324e-14 0)
(5.22222 -9.60599e-14 0)
(5.22222 -1.51556e-13 0)
(5.22222 -8.39412e-14 0)
(5.22222 2.85749e-14 0)
(5.22222 2.91417e-14 0)
(5.22222 1.89866e-14 0)
(5.22222 -2.27739e-14 0)
(5.22222 2.80915e-14 0)
(5.22222 -6.67465e-14 0)
(5.22222 -1.5536e-15 0)
(5.22222 -1.1382e-14 0)
(5.22222 -8.13474e-16 0)
(5.22222 4.60413e-15 0)
(5.22222 -1.45292e-14 0)
(5.22222 -4.69948e-14 0)
(5.22222 -1.02721e-13 0)
(5.22222 -1.27919e-13 0)
(5.22222 -8.30277e-14 0)
(5.22222 -6.3711e-14 0)
(5.22222 -4.72348e-14 0)
(5.22222 -4.03336e-14 0)
(5.22222 -3.4896e-14 0)
(5.22222 -6.1944e-14 0)
(5.22222 -8.41312e-14 0)
(5.22222 -2.96218e-14 0)
(5.22222 3.89867e-14 0)
(5.22222 3.33124e-14 0)
(5.22222 3.92434e-14 0)
(5.22222 6.29075e-14 0)
(5.22222 5.6213e-14 0)
(5.22222 -8.6615e-15 0)
(5.22222 -4.93085e-14 0)
(5.22222 -6.90453e-14 0)
(5.22222 -5.9847e-14 0)
(5.22222 -6.21707e-14 0)
(5.22222 3.6933e-14 0)
(5.22222 8.64083e-14 0)
(5.22222 1.60004e-13 0)
(5.22222 1.28399e-13 0)
(5.22222 7.02121e-14 0)
(5.22222 -5.33625e-14 0)
(5.22222 -1.23845e-13 0)
(5.22222 -1.1395e-13 0)
(5.22222 -1.36744e-13 0)
(5.22222 -1.16167e-13 0)
(5.22222 -1.74697e-15 0)
(5.22222 4.0537e-14 0)
(5.22222 7.27259e-14 0)
(5.22222 4.75146e-14 0)
(5.22222 1.43892e-14 0)
(5.22222 9.45163e-15 0)
(5.22222 8.82152e-15 0)
(5.22222 1.62395e-14 0)
(5.22222 3.82833e-14 0)
(5.22222 4.0807e-14 0)
(5.22222 1.47292e-14 0)
(5.22222 -4.55279e-14 0)
(5.22222 -5.32292e-14 0)
(5.22222 -1.87166e-14 0)
(5.22222 4.14338e-14 0)
(5.22222 5.59063e-14 0)
(5.22222 2.66646e-14 0)
(5.22222 1.40591e-14 0)
(5.22222 4.27407e-15 0)
(5.22222 3.67663e-14 0)
(5.22222 1.21654e-14 0)
(5.22222 -3.54495e-14 0)
(5.22222 -5.5973e-14 0)
(5.22222 -2.4931e-14 0)
(5.22222 -7.9417e-14 0)
(5.22222 -1.88273e-13 0)
(5.22222 -1.58467e-13 0)
(5.22222 -2.8745e-13 0)
(5.22222 -3.691e-13 0)
(5.22222 -3.2532e-13 0)
(5.22222 -2.28356e-13 0)
(5.22222 -2.02055e-13 0)
(5.22222 -2.26216e-13 0)
(5.22222 -2.1499e-13 0)
(5.22222 -2.39675e-13 0)
(5.22222 -1.89476e-13 0)
(5.22222 -8.44179e-14 0)
(5.22222 -8.81886e-14 0)
(5.22222 -1.47502e-13 0)
(5.22222 -1.86999e-13 0)
(5.22222 -1.67299e-13 0)
(5.22222 -7.5413e-14 0)
(5.22222 -6.06071e-14 0)
(5.22222 -6.83353e-14 0)
(5.22222 -3.4806e-15 0)
(5.22222 6.7645e-15 0)
(5.22222 -3.28057e-15 0)
(5.22222 8.01138e-15 0)
(5.22222 1.1502e-15 0)
(5.22222 6.76784e-16 0)
(5.22222 -1.80031e-14 0)
(5.22222 -3.76732e-16 0)
(5.22222 3.11987e-14 0)
(5.22222 4.88684e-14 0)
(5.22222 9.19892e-14 0)
(5.22222 8.4648e-14 0)
(5.22222 4.85917e-14 0)
(5.22222 6.11572e-14 0)
(5.22222 7.73634e-14 0)
(5.22222 5.09121e-14 0)
(5.22222 2.66646e-14 0)
(5.22222 1.62461e-14 0)
(5.22222 1.07485e-14 0)
(5.22222 -3.17255e-14 0)
(5.22222 -1.01271e-13 0)
(5.22222 -1.44605e-13 0)
(5.22222 -1.7083e-13 0)
(5.22222 -1.84562e-13 0)
(5.22222 -2.84803e-13 0)
(5.22222 -3.52131e-13 0)
(5.22222 -3.4746e-13 0)
(5.22222 -3.03389e-13 0)
(5.22222 -3.8609e-13 0)
(5.22222 -4.03233e-13 0)
(5.22222 -4.10067e-13 0)
(5.22222 -3.45913e-13 0)
(5.22222 -1.82201e-13 0)
(5.22222 -9.43563e-14 0)
(5.22222 -8.08673e-14 0)
(5.22222 -1.1382e-13 0)
(5.22222 -1.48996e-13 0)
(5.22222 -2.03525e-13 0)
(5.22222 -2.14014e-13 0)
(5.22222 -2.20382e-13 0)
(5.22222 -1.79031e-15 0)
(5.22222 1.52526e-14 0)
(5.22222 3.58829e-14 0)
(5.22222 3.74398e-14 0)
(5.22222 5.56763e-15 0)
(5.22222 8.31477e-15 0)
(5.22222 2.50043e-15 0)
(5.22222 -2.23372e-16 0)
(5.22222 7.61798e-15 0)
(5.22222 -7.81802e-15 0)
(5.22222 -2.27006e-14 0)
(5.22222 -3.18488e-14 0)
(5.22222 -4.8315e-14 0)
(5.22222 -9.64167e-14 0)
(5.22222 -9.22426e-14 0)
(5.22222 -9.74235e-14 0)
(5.22222 -2.83682e-14 0)
(5.22222 4.97486e-14 0)
(5.22222 5.51362e-14 0)
(5.22222 1.22021e-14 0)
(5.22222 -1.73263e-14 0)
(5.22222 -7.63665e-14 0)
(5.22222 -9.79002e-14 0)
(5.22222 -1.16407e-13 0)
(5.22222 -1.30743e-13 0)
(5.22222 -1.24538e-13 0)
(5.22222 -1.38737e-13 0)
(5.22222 -1.26532e-13 0)
(5.22222 -1.41541e-13 0)
(5.22222 -1.52776e-13 0)
(5.22222 -1.63528e-13 0)
(5.22222 -1.60198e-13 0)
(5.22222 -9.70268e-14 0)