/*--------------------------------*- C++ -*----------------------------------*\
| =========                 |                                                 |
| \\      /  F ield         | OpenFOAM: The Open Source CFD Toolbox           |
|  \\    /   O peration     | Version:  2206                                  |
|   \\  /    A nd           | Website:  www.openfoam.com                      |
|    \\/     M anipulation  |                                                 |
\*---------------------------------------------------------------------------*/
FoamFile
{
    version     2.0;
    format      ascii;
    arch        "LSB;label=32;scalar=64";
    class       volScalarField;
    location    "0.18";
    object      p;
}
// * * * * * * * * * * * * * * * * * * * * * * * * * * * * * * * * * * * * * //

dimensions      [1 -1 -2 0 0 0 0];

internalField   nonuniform List<scalar> 
4800
(
1
1
1
1
1
1
1
1
1
1
1
1
1
1
1
1
1
1
1
1
1
1
1
1
1
1
1
1
1
1
1
1
1
1
1
1
1
1
1
1
1
1
1
1
1
1
1
1
1
1
1
1
1
1
1
1
1
1
1
1
1
1
1
1
1
1
1
1
1
1
1
1
1
1
1
1
1
1
1
1
1
1
1
1
1
1
1
1
1
1
1
1
1
1
1
1
1
1
1
1
1
1
1
1
1
1
1
1
1
1
1
1
1
1
1
1
1
1
1
1
1
1
1
1
1
1
1
1
1
1
1
1
1
1
1
1
1
1
1
1
1
1
1
1
1
1
1
1
1
1
1
1
1
1
1
1
1
1
1
1
1
1
1
1
1
1
1
1
1
1
1
1
1
1
1
1
1
1
1
1
1
1
1
1
1
1
1
1
1
1
1
1
1
1
1
1
1
1
1
1
1
1
1
1
1
1
1
1
1
1
1
1
1
1
1
1
1
1
1
1
1
1
1
1
1
1
1
1
1
1
1
1
1
1
1
1
1
1
1
1
1
1
1
1
1
1
1
1
1
1
1
1
1
1
1
1
1
1
1
1
1
1
1
1
1
1
1
1
1
1
1
1
1
1
1
1
1
1
1
1
1
1
1
1
1
1
1
1
1
1
1
1
1
1
1
1
1
1
1
1
1
1
1
1
1
1
1
1
1
1
1
1
1
1
1
1
1
1
1
1
1
1
1
1
1
1
1
1
1
1
1
1
1
1
1
1
1
1
1
1
1
1
1
1
1
1
1
1
1
1
1
1
1
1
1
1
1
1
1
1
1
1
1
1
1
1
1
1
1
1
1
1
1
1
1
1
1
1
1
1
1
1
1
1
1
1
1
1
1
1
1
1
1
1
1
1
1
1
1
1
1
1
1
1
1
1
1
1
1
1
1
1
1
1
1
1
1
1
1
1
1
1
1
1
1
1
1
1
1
1
1
1
1
1
1
1
1
1
1
1
1
1
1
1
1
1
1
1
1
1
1
1
1
1
1
1
1
1
1
1
1
1
1
1
1
1
1
1
1
1
1
1
1
1
1
1
1
1
1
1
1
1
1
1
1
1
1
1
1
1
1
1
1
1
1
1
1
1
1
1
1
1
1
1
1
1
1
1
1
1
1
1
1
1
1
1
1
1
1
1
1
1
1
1
1
1
1
1
1
1
1
1
1
1
1
1
1
1
1
1
1
1
1
1
1
1
1
1
1
1
1
1
1
1
1
1
1
1
1
1
1
1
1
1
1
1
1
1
1
1
1
1
1
1
1
1
1
1
1
1
1
1
1
1
1
1
1
1
1
1
1
1
1
1
1
1
1
1
1
1
1
1
1
1
1
1
1
1
1
1
1
1
1
1
1
1
1
1
1
1
1
1
1
1
1
1
1
1
1
1
1
1
1
1
1
1
1
1
1
1
1
1
1
1
1
1
1
1
1
1
1
1
1
1
1
1
1
1
1
1
1
1
1
1
1
1
1
1
1
1
1
1
1
1
1
1
1
1
1
1
1
1
1
1
1
1
1
1
1
1
1
1
1
1
1
1
1
1
1
1
1
1
1
1
1
1
1
1
1
1
1
1
1
1
1
1
1
1
1
1
1
1
1
1
1
1
1
1
1
1
1
1
1
1
1
1
1
1
1
1
1
1
1
1
1
1
1
1
1
1
1
1
1
1
1
1
1
1
1
1
1
1
1
1
1
1
1
1
1
1
1
1
1
1
1
1
1
1
1
1
1
1
1
1
1
1
1
1
1
1
1
1
1
1
1
1
1
1
1
1
1
1
1
1
1
1
1
1
1
1
1
1
1
1
1
1
1
1
1
1
1
1
1
1
1
1
1
1
1
1
1
1
1
1
1
1
1
1
1
1
1
1
1
1
1
1
1
1
1
1
1
1
1
1
1
1
1
1
1
1
1
1
1
1
1
1
1
1
1
1
1
1
1
1
1
1
1
1
1
1
1
1
1
1
1
1
1
1
1
1
1
1
1
1
1
1
1
1
1
1
1
1
1
1
1
1
1
1
1
1
1
1
1
1
1
1
1
1
1
1
1
1
1
1
1
1
1
1
1
1
1
1
1
1
1
1
1
1
1
1
1
1
1
1
1
1
1
1
1
1
1
1
1
1
1
1
1
1
1
1
1
1
1
1
1
1
1
1
1
1
1
1
1
1
1
1
1
1
1
1
1
1
1
1
1
1
1
1
1
1
1
1
1
1
1
1
1
1
1
1
1
1
1
1
1
1
1
1
1
1
1
1
1
1
1
1
1
1
1
1
1
1
1
1
1
1
1
1
1
1
1
1
1
1
1
1
1
1
1
1
1
1
1
1
1
1
1
1
1
1
1
1
1
1
1
1
1
1
1
1
1
1
1
1
1
1
1
1
1
1
1
1
1
1
1
1
1
1
1
1
1
1
1
1
1
1
1
1
1
1
1
1
1
1
1
1
1
1
1
1
1
1
1
1
1
1
1
1
1
1
1
1
1
1
1
1
1
1
1
1
1
1
1
1
1
1
1
1
1
1
1
1
1
1
1
1
1
1
1
1
1
1
1
1
1
1
1
1
1
1
1
1
1
1
1
1
1
1
1
1
1
1
1
1
1
1
1
1
1
1
1
1
1
1
1
1
1
1
1
1
1
1
1
1
1
1
1
1
1
1
1
1
1
1
1
1
1
1
1
1
1
1
1
1
1
1
1
1
1
1
1
1
1
1
1
1
1
1
1
1
1
1
1
1
1
1
1
1
1
1
1
1
1
1
1
1
1
1
1
1
1
1
1
1
1
1
1
1
1
1
1
1
1
1
1
1
1
1
1
1
1
1
1
1
1
1
1
1
1
1
1
1
1
1
1
1
1
1
1
1
1
1
1
1
1
1
1
1
1
1
1
1
1
1
1
1
1
1
1
1
1
1
1
1
1
1
1
1
1
1
1
1
1
1
1
1
1
1
1
1
1
1
1
1
1
1
1
1
1
1
1
1
1
1
1
1
1
1
1
1
1
1
1
1
1
1
1
1
1
1
1
1
1
1
1
1
1
1
1
1
1
1
1
1
1
1
1
1
1
1
1
1
1
1
1
1
1
1
1
1
1
1
1
1
1
1
1
1
1
1
1
1
1
1
1
1
1
1
1
1
1
1
1
1
1
1
1
1
1
1
1
1
1
1
1
1
1
1
1
1
1
1
1
1
1
1
1
1
1
1
1
1
1
1
1
1
1
1
1
1
1
1
1
1
1
1
1
1
1
1
1
1
1
1
1
1
1
1
1
1
1
1
1
1
1
1
1
1
1
1
1
1
1
1
1
1
1
1
1
1
1
1
1
1
1
1
1
1
1
1
1
1
1
1
1
1
1
1
1
1
1
1
1
1
1
1
1
1
1
1
1
1
1
1
1
1
1
1
1
1
1
1
1
1
1
1
1
1
1
1
1
1
1
1
1
1
1
1
1
1
1
1
1
1
1
1
1
1
1
1
1
1
1
1
1
1
1
1
1
1
1
1
1
1
1
1
1
1
1
1
1
1
1
1
1
1
1
1
1
1
1
1
1
1
1
1
1
1
1
1
1
1
1
1
1
1
1
1
1
1
1.27134
1.70603
2.20473
2.6436
3.1878
3.6178
3.8784
4.17767
4.17952
4.07621
3.82659
3.51511
3.23776
3.14856
3.07176
3.00035
3.00072
3.02392
3.05849
3.08481
3.10662
3.1096
3.11148
3.11944
3.13148
3.13914
3.14057
3.14024
3.14039
3.14331
3.14533
3.14625
3.14742
3.14707
3.14621
3.14677
3.14772
3.15009
3.15345
3.15706
3.15982
3.16015
3.15895
3.15652
3.15409
3.15222
3.15013
3.14748
3.14568
3.14515
3.14554
3.14739
3.15035
3.15187
3.15204
3.15206
3.15182
3.15146
3.15132
3.15115
3.15086
3.15098
3.15103
3.15083
3.1505
3.14987
3.14928
3.14911
3.14924
3.14997
3.15104
3.15157
3.15204
3.15224
3.15196
3.15114
3.14995
3.14914
3.14886
3.14848
1.00628
1.02709
1.10185
1.25337
1.44059
1.76526
2.1017
2.4933
2.81502
3.06079
3.18824
3.31685
3.33156
3.31515
3.27246
3.21361
3.16765
3.13497
3.10827
3.0834
3.08453
3.09519
3.11178
3.12651
3.13609
3.13818
3.13608
3.1366
3.13765
3.13975
3.14196
3.14224
3.1416
3.13975
3.1394
3.14041
3.14146
3.14261
3.14417
3.14714
3.15135
3.15359
3.15463
3.15484
3.15363
3.15201
3.15046
3.14934
3.14908
3.14917
3.14987
3.15157
3.15322
3.15359
3.15357
3.15346
3.15311
3.15284
3.15289
3.15275
3.15252
3.15237
3.15205
3.15164
3.15085
3.14961
3.14895
3.14891
3.14932
3.15055
3.15194
3.15253
3.15299
3.15303
3.15255
3.15143
3.15012
3.14924
3.14878
3.1484
1
1
1.00031
1.00248
1.00936
1.04038
1.11963
1.30902
1.67169
2.2373
2.89076
3.20862
3.50328
3.50874
3.4905
3.42337
3.32781
3.18063
3.09792
3.08142
3.08352
3.09914
3.12229
3.13553
3.13545
3.13406
3.1321
3.13556
3.14064
3.14478
3.14932
3.15077
3.14923
3.14575
3.14167
3.13922
3.13822
3.13773
3.13747
3.13881
3.14159
3.14486
3.14727
3.1485
3.14882
3.14898
3.14884
3.14884
3.14919
3.14978
3.15081
3.15238
3.15397
3.15446
3.15439
3.15455
3.1544
3.15416
3.15426
3.15416
3.15383
3.15356
3.15312
3.15265
3.15179
3.15043
3.14945
3.14951
3.15026
3.15173
3.15336
3.15397
3.15427
3.15423
3.15377
3.15262
3.15118
3.15001
3.14929
3.1487
1
1
0.999999
1
0.999999
1.00004
1.00045
1.00351
1.024
1.11586
1.44571
1.94955
2.64685
3.02504
3.23653
3.27815
3.2343
3.23425
3.22784
3.21204
3.17164
3.1578
3.13585
3.1147
3.10531
3.11134
3.12015
3.13085
3.14313
3.14953
3.15545
3.1565
3.15541
3.1526
3.14787
3.14516
3.14459
3.14401
3.14296
3.14239
3.1434
3.14491
3.14682
3.14776
3.1483
3.14861
3.14829
3.14789
3.14801
3.14853
3.14918
3.15005
3.15128
3.15154
3.15135
3.15156
3.15166
3.15226
3.15284
3.15336
3.15365
3.15324
3.15263
3.15194
3.15077
3.14936
3.14869
3.14881
3.14998
3.15236
3.15474
3.15536
3.15547
3.15541
3.15491
3.15369
3.1522
3.15066
3.14971
3.14883
1
1
1
1
1
1
0.999999
1
1
1.00036
1.00784
1.06292
1.25395
1.74135
2.31939
2.94863
3.15137
3.29915
3.32131
3.30738
3.2724
3.19071
3.11009
3.07975
3.08365
3.09953
3.10755
3.11565
3.12371
3.13386
3.14565
3.15159
3.1528
3.15384
3.15422
3.15413
3.15407
3.15389
3.15304
3.15169
3.15124
3.15077
3.1515
3.1522
3.15247
3.15226
3.1513
3.15062
3.1504
3.15076
3.15097
3.1509
3.15108
3.15053
3.14998
3.14971
3.15007
3.15063
3.15096
3.15147
3.15194
3.15132
3.15064
3.14989
3.14861
3.14731
3.1467
3.14669
3.14783
3.15049
3.15372
3.15463
3.1547
3.15452
3.15393
3.15278
3.15151
3.15021
3.14921
3.14825
1
1
1
1
1
1
1
1
1
1
0.999995
1.00011
1.00213
1.03419
1.1611
1.51115
2.08219
2.64239
3.10492
3.14408
3.18724
3.20991
3.16946
3.13098
3.12933
3.1253
3.12173
3.11374
3.10329
3.10444
3.11082
3.11975
3.12952
3.13768
3.14504
3.14951
3.15304
3.15663
3.15832
3.15714
3.15535
3.1536
3.15272
3.15297
3.15366
3.15445
3.15409
3.15346
3.15264
3.15228
3.15191
3.15138
3.15076
3.14987
3.14942
3.14949
3.15005
3.15065
3.1511
3.15191
3.15252
3.15187
3.1511
3.14991
3.14822
3.14726
3.14666
3.14662
3.14769
3.15011
3.15318
3.1543
3.15434
3.15403
3.15332
3.15224
3.15117
3.15013
3.14935
3.1482
1
1
1
1
1
1
1
1
1
1
1
1
0.999997
1.00003
1.001
1.01243
1.10893
1.35094
1.8646
2.41694
2.92896
3.1637
3.2318
3.22788
3.21108
3.17394
3.14858
3.12847
3.1095
3.09958
3.09767
3.09888
3.10857
3.11981
3.12721
3.13369
3.13834
3.14203
3.14644
3.14844
3.14759
3.14618
3.14506
3.14566
3.14721
3.15
3.1517
3.15205
3.15255
3.15334
3.15368
3.15336
3.15259
3.15175
3.15132
3.15141
3.15185
3.1523
3.1528
3.15361
3.15427
3.15383
3.15299
3.15156
3.1498
3.14899
3.14847
3.14847
3.14941
3.15125
3.1534
3.15441
3.15443
3.15408
3.15339
3.15248
3.15146
3.1504
3.14972
3.14839
1
1
1
1
1
1
1
1
1
1
1
1
1
1
1
0.999997
1.00055
1.00608
1.05729
1.27563
1.67601
2.23864
2.70054
3.08752
3.17561
3.17568
3.1852
3.18212
3.16283
3.14633
3.13319
3.12184
3.11667
3.11487
3.11854
3.12597
3.1319
3.13509
3.13842
3.13935
3.13679
3.13665
3.13826
3.13932
3.13973
3.14122
3.14336
3.14579
3.1489
3.15157
3.15283
3.15329
3.15329
3.15301
3.15274
3.15294
3.15337
3.15407
3.15499
3.1557
3.15562
3.15483
3.15383
3.15233
3.15077
3.14996
3.14952
3.1493
3.14974
3.15135
3.15295
3.1536
3.15355
3.15313
3.15257
3.15197
3.15125
3.15053
3.14991
3.14858
1
1
1
1
1
1
1
1
1
1
1
1
1
1
1
1
1
0.999996
1.00019
1.00423
1.03003
1.19551
1.55688
2.11708
2.54476
2.91592
3.12434
3.17015
3.18634
3.18611
3.17231
3.16069
3.15286
3.14221
3.13996
3.14575
3.15009
3.14913
3.14584
3.14486
3.14158
3.13895
3.14114
3.14176
3.14103
3.14014
3.14012
3.14251
3.14644
3.14851
3.14927
3.1496
3.14985
3.14978
3.14965
3.14992
3.15044
3.15195
3.15388
3.15443
3.15382
3.1529
3.15186
3.1505
3.14958
3.14927
3.14907
3.14919
3.15025
3.15148
3.15236
3.15245
3.15241
3.15227
3.15201
3.15166
3.15112
3.15048
3.15001
3.14894
1
1
1
1
1
1
1
1
1
1
1
1
1
1
1
1
1
1
1
0.999998
1.00005
1.00253
1.02178
1.12195
1.45378
1.94138
2.49101
2.79518
3.00046
3.08023
3.13875
3.1629
3.16905
3.16056
3.14875
3.14948
3.15139
3.15223
3.15398
3.15958
3.1616
3.15874
3.15725
3.15707
3.15543
3.1513
3.14878
3.14864
3.14927
3.1493
3.14944
3.14937
3.14929
3.14917
3.14871
3.14883
3.14934
3.15068
3.15212
3.15206
3.15108
3.14924
3.14782
3.1475
3.14749
3.1478
3.14865
3.14985
3.15146
3.15244
3.15257
3.15217
3.15204
3.15199
3.15196
3.15185
3.15158
3.15146
3.1512
3.14973
1
1
1
1
1
1
1
1
1
1
1
1
1
1
1
1
1
1
1
1
1
0.999998
1.00003
1.001
1.01659
1.08339
1.36178
1.87455
2.48697
2.76364
2.94521
3.05382
3.09794
3.11098
3.10711
3.10513
3.11776
3.13052
3.1387
3.14691
3.15337
3.15824
3.15976
3.16037
3.15987
3.15569
3.15435
3.1554
3.15629
3.15611
3.15573
3.15495
3.15451
3.15387
3.15265
3.15158
3.15151
3.15128
3.15141
3.15127
3.15019
3.14798
3.14654
3.14681
3.14719
3.14781
3.14905
3.15055
3.15222
3.15323
3.15315
3.15248
3.15139
3.15132
3.1513
3.1513
3.15127
3.15164
3.15159
3.15049
1
1
1
1
1
1
1
1
1
1
1
1
1
1
1
1
1
1
1
1
1
1
1
0.999999
1.00002
1.00055
1.01191
1.08305
1.309
1.78701
2.35351
2.86925
2.97944
3.05253
3.07453
3.0715
3.08967
3.09862
3.10711
3.11621
3.12282
3.12993
3.1351
3.13878
3.14293
3.14774
3.14969
3.15154
3.15256
3.15271
3.15255
3.15255
3.15297
3.15327
3.15384
3.15504
3.15535
3.15504
3.1547
3.15417
3.15266
3.14956
3.14678
3.14665
3.14721
3.14795
3.14962
3.15191
3.15391
3.15435
3.15363
3.15237
3.15103
3.15046
3.15046
3.15051
3.1506
3.15066
3.15071
3.1507
1
1
1
1
1
1
1
1
1
1
1
1
1
1
1
1
1
1
1
1
1
1
1
1
1
0.999999
1.00001
1.00061
1.00784
1.07513
1.26592
1.73613
2.30692
2.83013
3.03958
3.08803
3.13437
3.12609
3.12095
3.12363
3.12127
3.11687
3.11683
3.12001
3.12647
3.13219
3.13525
3.13865
3.14171
3.14314
3.14411
3.1455
3.14633
3.14727
3.14974
3.15284
3.15448
3.15469
3.15461
3.1542
3.15298
3.1505
3.14791
3.14785
3.14868
3.14963
3.15143
3.15405
3.15585
3.15596
3.15482
3.15241
3.14974
3.14873
3.14887
3.14914
3.14941
3.14954
3.15023
3.15071
1
1
1
1
1
1
1
1
1
1
1
1
1
1
1
1
1
1
1
1
1
1
1
1
1
1
1
0.999999
1
1.00058
1.00612
1.06425
1.27649
1.73833
2.29601
2.79478
3.03707
3.14032
3.16006
3.17433
3.16754
3.15619
3.14518
3.14153
3.14074
3.13965
3.1383
3.13977
3.14171
3.14206
3.14208
3.14212
3.1422
3.14338
3.14599
3.14949
3.15215
3.15277
3.15271
3.15218
3.15107
3.14922
3.14717
3.1474
3.14845
3.14978
3.15209
3.15468
3.1558
3.15586
3.15483
3.15246
3.14957
3.14835
3.14844
3.14869
3.14886
3.14895
3.14997
3.15059
1
1
1
1
1
1
1
1
1
1
1
1
1
1
1
1
1
1
1
1
1
1
1
1
1
1
1
1
1
1
1
1.00055
1.00726
1.06344
1.31802
1.7707
2.30485
2.76366
3.03583
3.12634
3.1494
3.16492
3.16532
3.16291
3.16236
3.1601
3.15797
3.1604
3.16022
3.15695
3.15294
3.15078
3.15007
3.14942
3.15048
3.15235
3.15401
3.15432
3.15395
3.15278
3.1511
3.149
3.14723
3.14769
3.14889
3.1504
3.15236
3.15378
3.15446
3.15436
3.1532
3.15096
3.14871
3.148
3.14827
3.14854
3.14861
3.1489
3.14994
3.15083
1
1
1
1
1
1
1
1
1
1
1
1
1
1
1
1
1
1
1
1
1
1
1
1
1
1
1
1
1
1
1
0.999999
1.00001
1.00059
1.01043
1.06547
1.33663
1.85744
2.43117
2.76691
2.97026
3.07939
3.12624
3.12654
3.13815
3.15302
3.15684
3.15954
3.16053
3.15962
3.15795
3.15705
3.15622
3.1541
3.15399
3.15543
3.15659
3.15669
3.15658
3.15546
3.15298
3.14991
3.14833
3.14904
3.15023
3.15155
3.15249
3.1532
3.15338
3.15273
3.15119
3.14893
3.14729
3.1472
3.14776
3.14812
3.14816
3.14875
3.14998
3.15089
1
1
1
1
1
1
1
1
1
1
1
1
1
1
1
1
1
1
1
1
1
1
1
1
1
1
1
1
1
1
1
1
1
0.999999
1.00002
1.00063
1.01423
1.0874
1.38427
1.94971
2.60083
2.86628
2.99598
3.04957
3.07595
3.10249
3.1186
3.1307
3.13655
3.13907
3.14099
3.14364
3.14629
3.14793
3.1491
3.15006
3.15136
3.15324
3.15431
3.15443
3.15242
3.14899
3.14821
3.14905
3.15022
3.15138
3.15212
3.1527
3.15275
3.15177
3.14977
3.14733
3.14605
3.14641
3.14723
3.14798
3.14857
3.14942
3.15068
3.15149
1
1
1
1
1
1
1
1
1
1
1
1
1
1
1
1
1
1
1
1
1
1
1
1
1
1
1
1
1
1
1
1
1
1
1
0.999999
1.00004
1.00106
1.02017
1.12896
1.48218
2.07439
2.71908
3.02165
3.07615
3.10156
3.12061
3.131
3.13229
3.13075
3.12931
3.13173
3.13605
3.13932
3.14191
3.1438
3.14597
3.1488
3.15029
3.15097
3.15003
3.14777
3.14752
3.14811
3.14922
3.15027
3.15095
3.15157
3.15183
3.15096
3.14878
3.14622
3.14503
3.14575
3.14707
3.14838
3.14952
3.15041
3.15168
3.15249
1
1
1
1
1
1
1
1
1
1
1
1
1
1
1
1
1
1
1
1
1
1
1
1
1
1
1
1
1
1
1
1
1
1
1
1
1
0.999999
1.00011
1.00231
1.03184
1.19632
1.63891
2.27643
2.81553
3.06911
3.16404
3.17004
3.16676
3.159
3.1532
3.14882
3.14802
3.14891
3.1493
3.14841
3.14744
3.14888
3.15006
3.15026
3.14949
3.14904
3.14935
3.14988
3.15051
3.15084
3.15129
3.15188
3.15202
3.15089
3.14863
3.14623
3.14525
3.14615
3.14802
3.15003
3.15138
3.15216
3.15338
3.1538
1
1
1
1
1
1
1
1
1
1
1
1
1
1
1
1
1
1
1
1
1
1
1
1
1
1
1
1
1
1
1
1
1
1
1
1
1
1
1
1
1.00027
1.00531
1.05739
1.32944
1.86083
2.43718
2.88113
3.09387
3.14503
3.14714
3.1589
3.16124
3.1579
3.15672
3.1566
3.15518
3.15326
3.15268
3.15233
3.15155
3.15058
3.15052
3.15089
3.15196
3.1522
3.1522
3.15246
3.15286
3.15268
3.15128
3.14875
3.14664
3.14607
3.14705
3.14904
3.15137
3.15281
3.15357
3.15467
3.15454
1
1
1
1
1
1
1
1
1
1
1
1
1
1
1
1
1
1
1
1
1
1
1
1
1
1
1
1
1
1
1
1
1
1
1
1
1
1
1
1
1
1.00001
1.0008
1.0146
1.1071
1.49844
2.16953
2.70068
2.92474
3.0377
3.10357
3.11907
3.12561
3.13389
3.14276
3.14702
3.14831
3.14926
3.15032
3.15075
3.14961
3.14913
3.14956
3.1511
3.15245
3.15291
3.15298
3.15285
3.1521
3.14997
3.1481
3.1473
3.14743
3.14859
3.15055
3.15267
3.1542
3.15493
3.15543
3.15438
1
1
1
1
1
1
1
1
1
1
1
1
1
1
1
1
1
1
1
1
1
1
1
1
1
1
1
1
1
1
1
1
1
1
1
1
1
1
1
1
1
1
1
1.00007
1.00239
1.03971
1.21843
1.74598
2.45416
2.95425
3.05495
3.08954
3.10676
3.12353
3.13636
3.14327
3.14454
3.14552
3.14643
3.14707
3.1465
3.14681
3.1483
3.15061
3.15225
3.15265
3.15245
3.1516
3.15016
3.1478
3.1465
3.1466
3.14745
3.1489
3.15038
3.15175
3.15326
3.1545
3.15492
3.15344
1
1
1
1
1
1
1
1
1
1
1
1
1
1
1
1
1
1
1
1
1
1
1
1
1
1
1
1
1
1
1
1
1
1
1
1
1
1
1
1
1
1
1
1
1
1.00044
1.00791
1.1008
1.42613
2.09121
2.72456
3.03799
3.15776
3.16427
3.16288
3.16008
3.15763
3.15482
3.15273
3.15176
3.15041
3.14927
3.14954
3.15112
3.15314
3.15386
3.1537
3.15214
3.14959
3.14715
3.14601
3.14617
3.14711
3.1483
3.14934
3.15022
3.15107
3.15203
3.1525
3.15166
1
1
1
1
1
1
1
1
1
1
1
1
1
1
1
1
1
1
1
1
1
1
1
1
1
1
1
1
1
1
1
1
1
1
1
1
1
1
1
1
1
1
1
1
1
1
1.00004
1.00239
1.02881
1.24631
1.78464
2.42003
2.85045
3.0639
3.14828
3.14327
3.14595
3.14998
3.15208
3.15221
3.15042
3.14814
3.14744
3.14893
3.15184
3.15338
3.1532
3.15174
3.14918
3.14727
3.14669
3.1469
3.14748
3.14816
3.14887
3.14942
3.14986
3.15049
3.15095
3.1505
1
1
1
1
1
1
1
1
1
1
1
1
1
1
1
1
1
1
1
1
1
1
1
1
1
1
1
1
1
1
1
1
1
1
1
1
1
1
1
1
1
1
1
1
1
1
1
1
1.00035
1.01188
1.09444
1.49687
2.20964
2.84253
3.00987
3.05999
3.09378
3.11795
3.13455
3.14257
3.14178
3.13888
3.13797
3.14065
3.14489
3.14867
3.14991
3.14966
3.14856
3.14746
3.14711
3.14714
3.14743
3.14798
3.14867
3.14934
3.14986
3.15019
3.15026
3.1492
1
1
1
1
1
1
1
1
1
1
1
1
1
1
1
1
1
1
1
1
1
1
1
1
1
1
1
1
1
1
1
1
1
1
1
1
1
1
1
1
1
1
1
1
1
1
1
1
1
1.00008
1.00236
1.0501
1.27886
1.91983
2.62423
3.04631
3.13255
3.1447
3.15131
3.14974
3.14695
3.14068
3.14049
3.14343
3.14656
3.14813
3.14875
3.1488
3.14845
3.14835
3.14818
3.14778
3.14782
3.14842
3.14917
3.15013
3.15072
3.15079
3.15049
3.14895
1
1
1
1
1
1
1
1
1
1
1
1
1
1
1
1
1
1
1
1
1
1
1
1
1
1
1
1
1
1
1
1
1
1
1
1
1
1
1
1
1
1
1
1
1
1
1
1
1
1
1.00001
1.00096
1.01556
1.17592
1.65841
2.38784
2.87308
3.09403
3.15944
3.16851
3.16847
3.1571
3.15332
3.15574
3.15621
3.15422
3.15204
3.15145
3.15092
3.15023
3.14976
3.14915
3.14891
3.14927
3.1499
3.15094
3.15166
3.15175
3.15122
3.14974
1
1
1
1
1
1
1
1
1
1
1
1
1
1
1
1
1
1
1
1
1
1
1
1
1
1
1
1
1
1
1
1
1
1
1
1
1
1
1
1
1
1
1
1
1
1
1
1
1
1
1
1
1.00018
1.00729
1.0814
1.47342
2.24885
2.78032
2.97732
3.07974
3.12423
3.12989
3.13828
3.14776
3.15199
3.15107
3.15047
3.15113
3.1514
3.15079
3.15018
3.1498
3.14955
3.14978
3.15033
3.15127
3.15201
3.15207
3.15162
3.15118
1
1
1
1
1
1
1
1
1
1
1
1
1
1
1
1
1
1
1
1
1
1
1
1
1
1
1
1
1
1
1
1
1
1
1
1
1
1
1
1
1
1
1
1
1
1
1
1
1
1
1
1
1
1.00005
1.00259
1.04623
1.31879
1.9964
2.74375
3.03954
3.10071
3.11765
3.12533
3.13173
3.13719
3.13982
3.1431
3.14656
3.14765
3.14789
3.1483
3.14906
3.14964
3.15001
3.15053
3.15138
3.15207
3.15202
3.15113
3.1673
1
1
1
1
1
1
1
1
1
1
1
1
1
1
1
1
1
1
1
1
1
1
1
1
1
1
1
1
1
1
1
1
1
1
1
1
1
1
1
1
1
1
1
1
1
1
1
1
1
1
1
1
1
1
1.00002
1.00096
1.0252
1.21001
1.79332
2.56279
3.00514
3.1549
3.15912
3.15581
3.15403
3.15164
3.15012
3.14937
3.1478
3.14684
3.14684
3.14832
3.14961
3.15008
3.15029
3.15041
3.15029
3.14995
3.14962
3.29099
1
1
1
1
1
1
1
1
1
1
1
1
1
1
1
1
1
1
1
1
1
1
1
1
1
1
1
1
1
1
1
1
1
1
1
1
1
1
1
1
1
1
1
1
1
1
1
1
1
1
1
1
1
1
1
1
1.00049
1.01074
1.14606
1.6634
2.41077
2.8788
3.07308
3.14446
3.14597
3.14975
3.15535
3.15529
3.1513
3.14868
3.14815
3.14875
3.14991
3.15032
3.1503
3.14941
3.14821
3.14767
3.1536
3.86058
1
1
1
1
1
1
1
1
1
1
1
1
1
1
1
1
1
1
1
1
1
1
1
1
1
1
1
1
1
1
1
1
1
1
1
1
1
1
1
1
1
1
1
1
1
1
1
1
1
1
1
1
1
1
1
1
1
1.00014
1.00776
1.08815
1.53873
2.37731
2.94122
3.02455
3.07461
3.1128
3.14027
3.14874
3.14916
3.14768
3.14641
3.14687
3.14889
3.15015
3.14988
3.14821
3.14628
3.15356
3.31073
5.23086
1
1
1
1
1
1
1
1
1
1
1
1
1
1
1
1
1
1
1
1
1
1
1
1
1
1
1
1
1
1
1
1
1
1
1
1
1
1
1
1
1
1
1
1
1
1
1
1
1
1
1
1
1
1
1
1
1
1
1.0001
1.00347
1.07744
1.44257
2.22552
2.8659
3.13025
3.15033
3.15199
3.16019
3.16003
3.1513
3.14398
3.14417
3.14715
3.14963
3.14897
3.14666
3.15294
3.35445
4.49138
6.77309
1
1
1
1
1
1
1
1
1
1
1
1
1
1
1
1
1
1
1
1
1
1
1
1
1
1
1
1
1
1
1
1
1
1
1
1
1
1
1
1
1
1
1
1
1
1
1
1
1
1
1
1
1
1
1
1
1
1
1
1.00004
1.00305
1.04874
1.3957
2.15616
2.74984
2.96816
3.11566
3.158
3.15829
3.14862
3.13947
3.1413
3.14678
3.1483
3.148
3.15792
3.36564
4.61377
6.67705
7.72252
1
1
1
1
1
1
1
1
1
1
1
1
1
1
1
1
1
1
1
1
1
1
1
1
1
1
1
1
1
1
1
1
1
1
1
1
1
1
1
1
1
1
1
1
1
1
1
1
1
1
1
1
1
1
1
1
1
1
1
1
1.00003
1.00172
1.0404
1.30411
2.05153
2.80811
3.10757
3.12182
3.13121
3.12762
3.1259
3.13344
3.14401
3.14634
3.16043
3.43414
4.75895
6.65481
7.49993
7.82349
1
1
1
1
1
1
1
1
1
1
1
1
1
1
1
1
1
1
1
1
1
1
1
1
1
1
1
1
1
1
1
1
1
1
1
1
1
1
1
1
1
1
1
1
1
1
1
1
1
1
1
1
1
1
1
1
1
1
1
1
1
1.00002
1.00112
1.03084
1.29368
2.01502
2.77303
3.08695
3.15235
3.14251
3.13823
3.14424
3.15048
3.18094
3.52967
4.98653
6.97545
7.87699
7.87617
7.83672
1
1
1
1
1
1
1
1
1
1
1
1
1
1
1
1
1
1
1
1
1
1
1
1
1
1
1
1
1
1
1
1
1
1
1
1
1
1
1
1
1
1
1
1
1
1
1
1
1
1
1
1
1
1
1
1
1
1
1
1
1
1
1.00001
1.00123
1.0261
1.29392
2.06301
2.83786
2.95476
3.01939
3.07815
3.12418
3.1953
3.72496
5.27615
7.06196
7.64929
7.93575
7.91531
7.83974
1
1
1
1
1
1
1
1
1
1
1
1
1
1
1
1
1
1
1
1
1
1
1
1
1
1
1
1
1
1
1
1
1
1
1
1
1
1
1
1
1
1
1
1
1
1
1
1
1
1
1
1
1
1
1
1
1
1
1
1
1
1
1
1.00002
1.00078
1.0343
1.26559
2.00492
2.79473
3.03573
3.11648
3.24579
3.89341
5.68136
7.3247
7.93036
7.89898
7.9102
7.89381
7.83082
1
1
1
1
1
1
1
1
1
1
1
1
1
1
1
1
1
1
1
1
1
1
1
1
1
1
1
1
1
1
1
1
1
1
1
1
1
1
1
1
1
1
1
1
1
1
1
1
1
1
1
1
1
1
1
1
1
1
1
1
1
1
1
1
1.00001
1.00136
1.02268
1.29141
2.09047
2.6438
3.39786
4.25142
5.91991
6.97838
7.74344
7.93419
7.87702
7.82635
7.83927
7.8238
1
1
1
1
1
1
1
1
1
1
1
1
1
1
1
1
1
1
1
1
1
1
1
1
1
1
1
1
1
1
1
1
1
1
1
1
1
1
1
1
1
1
1
1
1
1
1
1
1
1
1
1
1
1
1
1
1
1
1
1
1
1
1
1
1
1.00001
1.00072
1.03562
1.32943
2.62833
4.48344
6.78743
8.63721
8.56112
8.18171
7.90535
7.80466
7.75432
7.79903
7.83415
)
;

boundaryField
{
    inlet
    {
        type            fixedValue;
        value           uniform 1;
    }
    outlet
    {
        type            zeroGradient;
    }
    bottom
    {
        type            symmetryPlane;
    }
    top
    {
        type            symmetryPlane;
    }
    obstacle
    {
        type            zeroGradient;
    }
    defaultFaces
    {
        type            empty;
    }
}


// ************************************************************************* //
