/*--------------------------------*- C++ -*----------------------------------*\
| =========                 |                                                 |
| \\      /  F ield         | OpenFOAM: The Open Source CFD Toolbox           |
|  \\    /   O peration     | Version:  2206                                  |
|   \\  /    A nd           | Website:  www.openfoam.com                      |
|    \\/     M anipulation  |                                                 |
\*---------------------------------------------------------------------------*/
FoamFile
{
    version     2.0;
    format      ascii;
    arch        "LSB;label=32;scalar=64";
    class       volVectorField;
    location    "0.08";
    object      U;
}
// * * * * * * * * * * * * * * * * * * * * * * * * * * * * * * * * * * * * * //

dimensions      [0 1 -1 0 0 0 0];

internalField   nonuniform List<vector> 
75
(
(6.79798 -3.11179e-15 0)
(6.79798 -3.08387e-15 0)
(6.79798 6.5428e-17 0)
(6.79798 -3.70897e-17 0)
(6.79798 -3.04636e-16 0)
(6.79798 -8.66816e-17 0)
(6.79798 -3.76565e-15 0)
(6.79798 -3.70106e-15 0)
(6.79798 -3.61896e-15 0)
(6.79798 -3.38111e-15 0)
(6.79798 -3.13054e-15 0)
(6.79798 -3.05553e-15 0)
(6.79798 -5.91435e-15 0)
(6.79798 -5.60513e-15 0)
(6.79798 -1.38709e-15 0)
(6.79798 -2.93426e-15 0)
(6.79798 -1.39191e-16 0)
(6.79798 2.15579e-15 0)
(6.79798 4.74915e-15 0)
(6.79798 8.75779e-15 0)
(6.79798 2.94342e-15 0)
(6.79798 2.83132e-15 0)
(6.79798 4.96377e-15 0)
(6.79798 9.39079e-15 0)
(6.79798 9.35995e-15 0)
(6.77669 -0.00753026 0)
(6.73756 0.0686275 0)
(6.69779 0.0742468 0)
(6.64062 0.233133 0)
(6.60079 0.258304 0)
(6.52196 0.495898 0)
(6.48952 0.533904 0)
(6.38434 0.8053 0)
(6.35903 0.862095 0)
(6.22407 1.15038 0)
(6.79798 4.33484e-06 0)
(6.79798 1.04932e-05 0)
(6.80094 -0.00801596 0)
(6.79718 0.00129646 0)
(6.80604 -0.0256691 0)
(6.73975 0.147348 0)
(6.72302 0.200673 0)
(6.53946 0.666098 0)
(6.51911 0.856623 0)
(6.17575 1.676 0)
(6.79798 -2.79071e-10 0)
(6.79798 -2.55959e-07 0)
(6.79798 3.80813e-07 0)
(6.79798 8.84345e-07 0)
(6.79798 3.18837e-06 0)
(6.79798 -4.10881e-06 0)
(6.79896 -0.00224066 0)
(6.7965 0.00365435 0)
(6.79847 0.000931132 0)
(6.68643 0.39416 0)
(6.79798 8.54506e-13 0)
(6.79798 1.64653e-09 0)
(6.79798 -2.49901e-09 0)
(6.79798 1.13922e-07 0)
(6.79798 1.33839e-07 0)
(6.79798 -3.89256e-08 0)
(6.79802 -0.000119538 0)
(6.79805 -0.000210314 0)
(6.79803 -0.000171732 0)
(6.79479 0.0175688 0)
(6.79798 1.0275e-14 0)
(6.79798 6.69147e-11 0)
(6.79798 -1.19528e-10 0)
(6.79798 2.0907e-09 0)
(6.79798 1.81864e-08 0)
(6.79798 -2.23846e-09 0)
(6.79798 1.18939e-06 0)
(6.79799 -1.92686e-05 0)
(6.798 -4.77023e-05 0)
(6.79798 7.10364e-05 0)
)
;

boundaryField
{
    inlet
    {
        type            fixedValue;
        value           uniform (6.79798 0 0);
    }
    outlet
    {
        type            zeroGradient;
    }
    bottom
    {
        type            symmetryPlane;
    }
    top
    {
        type            symmetryPlane;
    }
    obstacle
    {
        type            slip;
    }
    defaultFaces
    {
        type            empty;
    }
}


// ************************************************************************* //
