/*--------------------------------*- C++ -*----------------------------------*\
| =========                 |                                                 |
| \\      /  F ield         | OpenFOAM: The Open Source CFD Toolbox           |
|  \\    /   O peration     | Version:  2206                                  |
|   \\  /    A nd           | Website:  www.openfoam.com                      |
|    \\/     M anipulation  |                                                 |
\*---------------------------------------------------------------------------*/
FoamFile
{
    version     2.0;
    format      ascii;
    arch        "LSB;label=32;scalar=64";
    class       volScalarField;
    location    "0.1";
    object      T;
}
// * * * * * * * * * * * * * * * * * * * * * * * * * * * * * * * * * * * * * //

dimensions      [0 0 0 1 0 0 0];

internalField   nonuniform List<scalar> 
75
(
1
1
1
1
1
1
1
1
1
1
1
1
1
1
1
1
1
1
1
1
1
1
1
1
1
1.07515
1.17765
1.28815
1.39365
1.49557
1.58278
1.6356
1.62841
1.59007
1.51677
1.00159
1.01201
1.03999
1.09985
1.17901
1.26872
1.36118
1.42017
1.44653
1.46901
0.999989
1.00008
1.00006
1.00191
1.01185
1.05169
1.15184
1.32948
1.45203
1.49757
1
1
0.999999
1.00001
0.999947
1.00059
1.01049
1.09278
1.27527
1.46601
1
1
1
0.999999
0.999983
0.999983
0.999938
1.0034
1.05566
1.4261
)
;

boundaryField
{
    inlet
    {
        type            fixedValue;
        value           uniform 1;
    }
    outlet
    {
        type            zeroGradient;
    }
    bottom
    {
        type            symmetryPlane;
    }
    top
    {
        type            symmetryPlane;
    }
    obstacle
    {
        type            zeroGradient;
    }
    defaultFaces
    {
        type            empty;
    }
}


// ************************************************************************* //
