/*--------------------------------*- C++ -*----------------------------------*\
| =========                 |                                                 |
| \\      /  F ield         | OpenFOAM: The Open Source CFD Toolbox           |
|  \\    /   O peration     | Version:  2206                                  |
|   \\  /    A nd           | Website:  www.openfoam.com                      |
|    \\/     M anipulation  |                                                 |
\*---------------------------------------------------------------------------*/
FoamFile
{
    version     2.0;
    format      ascii;
    arch        "LSB;label=32;scalar=64";
    class       volScalarField;
    location    "0.16";
    object      p;
}
// * * * * * * * * * * * * * * * * * * * * * * * * * * * * * * * * * * * * * //

dimensions      [1 -1 -2 0 0 0 0];

internalField   nonuniform List<scalar> 
4800
(
1
1
1
1
1
1
1
1
1
1
1
1
1
1
1
1
1
1
1
1
1
1
1
1
1
1
1
1
1
1
1
1
1
1
1
1
1
1
1
1
1
1
1
1
1
1
1
1
1
1
1
1
1
1
1
1
1
1
1
1
1
1
1
1
1
1
1
1
1
1
1
1
1
1
1
1
1
1
1
1
1
1
1
1
1
1
1
1
1
1
1
1
1
1
1
1
1
1
1
1
1
1
1
1
1
1
1
1
1
1
1
1
1
1
1
1
1
1
1
1
1
1
1
1
1
1
1
1
1
1
1
1
1
1
1
1
1
1
1
1
1
1
1
1
1
1
1
1
1
1
1
1
1
1
1
1
1
1
1
1
1
1
1
1
1
1
1
1
1
1
1
1
1
1
1
1
1
1
1
1
1
1
1
1
1
1
1
1
1
1
1
1
1
1
1
1
1
1
1
1
1
1
1
1
1
1
1
1
1
1
1
1
1
1
1
1
1
1
1
1
1
1
1
1
1
1
1
1
1
1
1
1
1
1
1
1
1
1
1
1
1
1
1
1
1
1
1
1
1
1
1
1
1
1
1
1
1
1
1
1
1
1
1
1
1
1
1
1
1
1
1
1
1
1
1
1
1
1
1
1
1
1
1
1
1
1
1
1
1
1
1
1
1
1
1
1
1
1
1
1
1
1
1
1
1
1
1
1
1
1
1
1
1
1
1
1
1
1
1
1
1
1
1
1
1
1
1
1
1
1
1
1
1
1
1
1
1
1
1
1
1
1
1
1
1
1
1
1
1
1
1
1
1
1
1
1
1
1
1
1
1
1
1
1
1
1
1
1
1
1
1
1
1
1
1
1
1
1
1
1
1
1
1
1
1
1
1
1
1
1
1
1
1
1
1
1
1
1
1
1
1
1
1
1
1
1
1
1
1
1
1
1
1
1
1
1
1
1
1
1
1
1
1
1
1
1
1
1
1
1
1
1
1
1
1
1
1
1
1
1
1
1
1
1
1
1
1
1
1
1
1
1
1
1
1
1
1
1
1
1
1
1
1
1
1
1
1
1
1
1
1
1
1
1
1
1
1
1
1
1
1
1
1
1
1
1
1
1
1
1
1
1
1
1
1
1
1
1
1
1
1
1
1
1
1
1
1
1
1
1
1
1
1
1
1
1
1
1
1
1
1
1
1
1
1
1
1
1
1
1
1
1
1
1
1
1
1
1
1
1
1
1
1
1
1
1
1
1
1
1
1
1
1
1
1
1
1
1
1
1
1
1
1
1
1
1
1
1
1
1
1
1
1
1
1
1
1
1
1
1
1
1
1
1
1
1
1
1
1
1
1
1
1
1
1
1
1
1
1
1
1
1
1
1
1
1
1
1
1
1
1
1
1
1
1
1
1
1
1
1
1
1
1
1
1
1
1
1
1
1
1
1
1
1
1
1
1
1
1
1
1
1
1
1
1
1
1
1
1
1
1
1
1
1
1
1
1
1
1
1
1
1
1
1
1
1
1
1
1
1
1
1
1
1
1
1
1
1
1
1
1
1
1
1
1
1
1
1
1
1
1
1
1
1
1
1
1
1
1
1
1
1
1
1
1
1
1
1
1
1
1
1
1
1
1
1
1
1
1
1
1
1
1
1
1
1
1
1
1
1
1
1
1
1
1
1
1
1
1
1
1
1
1
1
1
1
1
1
1
1
1
1
1
1
1
1
1
1
1
1
1
1
1
1
1
1
1
1
1
1
1
1
1
1
1
1
1
1
1
1
1
1
1
1
1
1
1
1
1
1
1
1
1
1
1
1
1
1
1
1
1
1
1
1
1
1
1
1
1
1
1
1
1
1
1
1
1
1
1
1
1
1
1
1
1
1
1
1
1
1
1
1
1
1
1
1
1
1
1
1
1
1
1
1
1
1
1
1
1
1
1
1
1
1
1
1
1
1
1
1
1
1
1
1
1
1
1
1
1
1
1
1
1
1
1
1
1
1
1
1
1
1
1
1
1
1
1
1
1
1
1
1
1
1
1
1
1
1
1
1
1
1
1
1
1
1
1
1
1
1
1
1
1
1
1
1
1
1
1
1
1
1
1
1
1
1
1
1
1
1
1
1
1
1
1
1
1
1
1
1
1
1
1
1
1
1
1
1
1
1
1
1
1
1
1
1
1
1
1
1
1
1
1
1
1
1
1
1
1
1
1
1
1
1
1
1
1
1
1
1
1
1
1
1
1
1
1
1
1
1
1
1
1
1
1
1
1
1
1
1
1
1
1
1
1
1
1
1
1
1
1
1
1
1
1
1
1
1
1
1
1
1
1
1
1
1
1
1
1
1
1
1
1
1
1
1
1
1
1
1
1
1
1
1
1
1
1
1
1
1
1
1
1
1
1
1
1
1
1
1
1
1
1
1
1
1
1
1
1
1
1
1
1
1
1
1
1
1
1
1
1
1
1
1
1
1
1
1
1
1
1
1
1
1
1
1
1
1
1
1
1
1
1
1
1
1
1
1
1
1
1
1
1
1
1
1
1
1
1
1
1
1
1
1
1
1
1
1
1
1
1
1
1
1
1
1
1
1
1
1
1
1
1
1
1
1
1
1
1
1
1
1
1
1
1
1
1
1
1
1
1
1
1
1
1
1
1
1
1
1
1
1
1
1
1
1
1
1
1
1
1
1
1
1
1
1
1
1
1
1
1
1
1
1
1
1
1
1
1
1
1
1
1
1
1
1
1
1
1
1
1
1
1
1
1
1
1
1
1
1
1
1
1
1
1
1
1
1
1
1
1
1
1
1
1
1
1
1
1
1
1
1
1
1
1
1
1
1
1
1
1
1
1
1
1
1
1
1
1
1
1
1
1
1
1
1
1
1
1
1
1
1
1
1
1
1
1
1
1
1
1
1
1
1
1
1
1
1
1
1
1
1
1
1
1
1
1
1
1
1
1
1
1
1
1
1
1
1
1
1
1
1
1
1
1
1
1
1
1
1
1
1
1
1
1
1
1
1
1
1
1
1
1
1
1
1
1
1
1
1
1
1
1
1
1
1
1
1
1
1
1
1
1
1
1
1
1
1
1
1
1
1
1
1
1
1
1
1
1
1
1
1
1
1
1
1
1
1
1
1
1
1
1
1
1
1
1
1
1
1
1
1
1
1
1
1
1
1
1
1
1
1
1
1
1
1
1
1
1
1
1
1
1
1
1
1
1
1
1
1
1
1
1
1
1
1
1
1
1
1
1
1
1
1
1
1
1
1
1
1
1
1
1
1
1
1
1
1
1
1
1
1
1
1
1
1
1
1
1
1
1
1
1
1
1
1
1
1
1
1
1
1
1
1
1
1
1
1
1
1
1
1
1
1
1
1
1
1
1
1
1
1
1
1
1
1
1
1
1
1
1
1
1
1
1
1
1
1
1
1
1
1
1
1
1
1
1
1
1
1
1
1
1
1
1
1
1
1
1
1
1
1
1
1
1
1
1
1
1
1
1
1
1
1
1
1
1
1
1
1
1
1
1
1
1
1
1
1
1
1
1
1
1
1
1
1
1
1
1
1
1
1
1
1
1
1
1
1
1
1
1
1
1
1
1
1
1
1
1
1
1
1
1
1
1
1
1
1
1
1
1.27009
1.68303
2.1941
2.75798
3.22129
3.7255
4.37164
4.62138
4.86055
5.16792
5.16794
5.04422
4.75404
4.37358
4.0655
3.85806
3.6478
3.51606
3.5233
3.54445
3.56247
3.58655
3.60495
3.63784
3.68019
3.71281
3.72363
3.72125
3.71505
3.71637
3.72593
3.74093
3.7516
3.75342
3.74977
3.73594
3.71636
3.70926
3.71127
3.71684
3.7245
3.73405
3.74308
3.74743
3.75016
3.75244
3.75339
3.75279
3.75196
3.75102
3.74864
3.7428
3.73863
3.73701
3.73604
3.73612
3.73799
3.74111
3.74371
3.74507
3.7458
3.74667
3.74768
3.74844
3.74922
3.75007
3.75149
3.75397
3.75658
3.75825
3.75853
3.75819
3.75699
3.75435
3.7517
3.75138
3.75178
3.7529
3.7544
3.75491
1.00048
1.01242
1.03592
1.11399
1.28666
1.46764
1.75364
2.16133
2.52097
2.96464
3.29291
3.61381
3.69195
3.84353
4.04154
4.03345
3.93516
3.83975
3.83547
3.81151
3.76215
3.71701
3.65264
3.63133
3.63865
3.66129
3.68243
3.69072
3.69774
3.70642
3.71979
3.73741
3.74652
3.74749
3.74512
3.73794
3.72897
3.72622
3.72868
3.73083
3.7317
3.73164
3.73079
3.72968
3.72989
3.73144
3.73382
3.73865
3.74493
3.7478
3.74856
3.74701
3.7463
3.74677
3.74766
3.74933
3.75138
3.75215
3.75147
3.75031
3.74961
3.74895
3.7477
3.74603
3.74487
3.74445
3.74463
3.74564
3.74719
3.74948
3.75076
3.75076
3.75029
3.74924
3.74891
3.74922
3.75018
3.75223
3.75489
3.75566
1
1
0.999963
1.00001
1.0001
1.00155
1.01003
1.05377
1.14535
1.36351
1.74611
2.29456
3.05354
3.63755
4.12842
4.2515
4.2046
4.15252
4.1037
4.04323
3.90193
3.75813
3.66416
3.62806
3.63445
3.64585
3.66258
3.6821
3.6829
3.68455
3.69173
3.70765
3.72792
3.74082
3.74497
3.74647
3.74417
3.74467
3.74678
3.74704
3.74433
3.73953
3.73282
3.72566
3.72222
3.72082
3.72062
3.72304
3.72984
3.73746
3.74182
3.74501
3.74802
3.75055
3.7529
3.7554
3.75734
3.75814
3.75793
3.75741
3.75696
3.75617
3.75455
3.75136
3.74744
3.74539
3.74467
3.74433
3.74415
3.74459
3.74468
3.74429
3.74318
3.74213
3.74215
3.74274
3.74449
3.74861
3.75366
3.75495
1
1
1
1
1
1
0.999986
1.00002
0.999936
1.00057
1.01031
1.0552
1.2807
1.73336
2.41892
3.1138
3.49336
3.87511
3.90791
3.89874
3.94249
3.9464
3.89842
3.81827
3.78567
3.74376
3.71785
3.68449
3.64329
3.63692
3.64624
3.66644
3.69615
3.71824
3.73091
3.73866
3.74501
3.75167
3.75731
3.75909
3.7571
3.75195
3.74211
3.73481
3.73195
3.72844
3.72698
3.72877
3.73307
3.7359
3.73635
3.73621
3.73649
3.73799
3.74116
3.74622
3.75141
3.75541
3.75829
3.75997
3.76049
3.7603
3.75881
3.75603
3.75363
3.75227
3.75115
3.74966
3.74819
3.74698
3.74599
3.74503
3.74348
3.74176
3.7413
3.74155
3.7426
3.7451
3.74916
3.75107
1
1
1
1
1
1
1
1
0.999999
0.999998
1
0.999947
1.00024
1.01043
1.07012
1.35312
1.82086
2.47313
3.10949
3.53445
3.95753
4.03665
4.02355
3.97994
3.93358
3.86907
3.76262
3.70992
3.67049
3.65698
3.65797
3.66989
3.68826
3.70498
3.70421
3.7014
3.7039
3.71292
3.72775
3.74322
3.75061
3.75216
3.75094
3.74986
3.74907
3.74721
3.74597
3.74665
3.74781
3.74706
3.74506
3.74173
3.73714
3.73408
3.73413
3.73553
3.73619
3.73672
3.73828
3.74174
3.74601
3.74986
3.75203
3.75364
3.75491
3.75548
3.75558
3.75516
3.75446
3.75368
3.75277
3.75163
3.74997
3.74769
3.74607
3.74591
3.74651
3.74779
3.75034
3.75202
1
1
1
1
1
1
1
1
1
1
1
0.999999
0.999998
1
0.99994
1.00116
1.01721
1.09205
1.41883
1.92337
2.609
3.13603
3.48356
3.77037
3.77388
3.77858
3.81347
3.82877
3.79807
3.7636
3.75014
3.73665
3.72395
3.70963
3.6844
3.66602
3.66825
3.67981
3.69718
3.71595
3.72915
3.73611
3.74186
3.74922
3.7562
3.75879
3.7581
3.75735
3.75751
3.75682
3.75448
3.74893
3.74221
3.73818
3.73883
3.738
3.73546
3.73197
3.72969
3.73021
3.73361
3.73843
3.74263
3.74498
3.74706
3.74895
3.75085
3.7531
3.75538
3.75676
3.7573
3.75725
3.75663
3.75525
3.75293
3.7521
3.75238
3.75301
3.75488
3.75599
1
1
1
1
1
1
1
1
1
1
1
1
1
1
0.999999
0.999997
1.00001
0.999969
1.00269
1.02885
1.13562
1.5124
2.03157
2.73615
3.19145
3.53482
3.80927
3.85002
3.85338
3.84323
3.81966
3.78373
3.75132
3.72869
3.69913
3.67948
3.67403
3.67472
3.68044
3.69549
3.7115
3.71701
3.72072
3.72577
3.73397
3.74419
3.74958
3.75334
3.75681
3.75895
3.75911
3.7565
3.7544
3.75243
3.74753
3.74486
3.74253
3.73947
3.73726
3.73754
3.74025
3.74401
3.74652
3.74733
3.74743
3.74691
3.74663
3.74746
3.74944
3.7513
3.75236
3.7533
3.75418
3.75413
3.75359
3.75333
3.7536
3.75414
3.75601
3.75756
1
1
1
1
1
1
1
1
1
1
1
1
1
1
1
1
1
0.999999
1
0.999986
1.00009
1.00633
1.04356
1.19976
1.66045
2.21924
2.90899
3.23133
3.51062
3.68203
3.70711
3.73947
3.77526
3.77654
3.76244
3.74798
3.73671
3.72746
3.72091
3.71615
3.70895
3.70736
3.71043
3.71372
3.71766
3.72126
3.72227
3.72729
3.73303
3.73753
3.74241
3.74746
3.75072
3.75411
3.75693
3.75748
3.75634
3.75417
3.75275
3.75168
3.75118
3.75146
3.75189
3.7521
3.7502
3.74707
3.74513
3.74465
3.74498
3.74604
3.74694
3.74732
3.74722
3.74698
3.74713
3.74752
3.748
3.74888
3.75097
3.75361
1
1
1
1
1
1
1
1
1
1
1
1
1
1
1
1
1
1
1
0.999999
0.999999
1
0.999986
1.00056
1.01547
1.07894
1.31704
1.83968
2.47421
3.07039
3.32516
3.60106
3.74181
3.74873
3.75678
3.7692
3.77188
3.76122
3.7504
3.74457
3.74148
3.74515
3.74885
3.74176
3.72584
3.71482
3.71173
3.71488
3.71759
3.71794
3.71789
3.71984
3.7263
3.73647
3.74494
3.74933
3.75167
3.75308
3.75391
3.75588
3.75873
3.7601
3.75944
3.75479
3.74877
3.74464
3.74164
3.7405
3.74031
3.74146
3.74328
3.74423
3.74368
3.74269
3.74247
3.74316
3.74434
3.74608
3.74871
3.75183
1
1
1
1
1
1
1
1
1
1
1
1
1
1
1
1
1
1
1
1
1
1
0.999999
0.999999
0.999995
1.00005
1.00245
1.03466
1.14037
1.50704
2.07605
2.73509
3.19428
3.39344
3.5461
3.62476
3.68737
3.73476
3.7604
3.76184
3.75754
3.75923
3.76401
3.76776
3.76704
3.76083
3.75001
3.73737
3.73128
3.72508
3.71775
3.71571
3.72027
3.72863
3.73231
3.73231
3.73182
3.73388
3.73854
3.74609
3.75371
3.75753
3.75716
3.75516
3.75379
3.75211
3.74952
3.74722
3.7464
3.7465
3.7468
3.74709
3.74631
3.7454
3.745
3.7451
3.74546
3.74671
3.74939
3.75315
1
1
1
1
1
1
1
1
1
1
1
1
1
1
1
1
1
1
1
1
1
1
1
1
0.999999
0.999999
1
1
1.0004
1.00966
1.07338
1.24688
1.72712
2.37078
3.12696
3.35073
3.48844
3.58705
3.67014
3.68743
3.68038
3.69234
3.72783
3.75888
3.76337
3.75944
3.7599
3.76229
3.76949
3.77176
3.76224
3.75079
3.74334
3.73629
3.73148
3.72809
3.72429
3.72268
3.72464
3.73239
3.74051
3.74465
3.74585
3.74618
3.74705
3.74889
3.74907
3.74898
3.74997
3.7514
3.75386
3.7551
3.75424
3.75154
3.74832
3.74667
3.74665
3.7474
3.74948
3.75347
1
1
1
1
1
1
1
1
1
1
1
1
1
1
1
1
1
1
1
1
1
1
1
1
1
1
1
1
0.999999
0.999992
1.00011
1.00175
1.03198
1.15007
1.50079
2.12062
2.79394
3.34632
3.48219
3.56789
3.60865
3.59593
3.62797
3.67503
3.71051
3.72426
3.73118
3.74253
3.75786
3.77176
3.77726
3.77704
3.77585
3.77239
3.7666
3.75769
3.74156
3.7283
3.72465
3.72656
3.73288
3.73746
3.73886
3.73918
3.73985
3.74053
3.7416
3.74366
3.74682
3.75062
3.7547
3.75689
3.75694
3.75615
3.75374
3.7505
3.74993
3.7504
3.75134
3.75388
1
1
1
1
1
1
1
1
1
1
1
1
1
1
1
1
1
1
1
1
1
1
1
1
1
1
1
1
1
0.999999
0.999999
0.999997
1.00002
1.00075
1.01113
1.10595
1.32536
1.83158
2.4817
3.22106
3.54848
3.58304
3.64917
3.65704
3.66153
3.66435
3.6584
3.66203
3.67981
3.71526
3.74917
3.76165
3.77002
3.77671
3.7775
3.7726
3.76104
3.75112
3.74888
3.74812
3.74862
3.74765
3.74415
3.73918
3.73588
3.73478
3.73642
3.73934
3.74243
3.74537
3.74861
3.75201
3.75338
3.75362
3.75212
3.74955
3.74964
3.75055
3.75188
3.75515
1
1
1
1
1
1
1
1
1
1
1
1
1
1
1
1
1
1
1
1
1
1
1
1
1
1
1
1
1
1
1
1
1
1
0.999993
1.00042
1.00406
1.04841
1.2233
1.67589
2.34663
3.00725
3.47895
3.65868
3.69539
3.70102
3.66544
3.65431
3.65498
3.66718
3.69571
3.70524
3.71216
3.72727
3.74
3.74951
3.75084
3.74796
3.74996
3.75407
3.7591
3.76244
3.76129
3.75542
3.74969
3.74623
3.74318
3.74196
3.7429
3.74356
3.74421
3.74579
3.7468
3.74717
3.74638
3.74517
3.74623
3.74761
3.7495
3.75335
1
1
1
1
1
1
1
1
1
1
1
1
1
1
1
1
1
1
1
1
1
1
1
1
1
1
1
1
1
1
1
1
1
1
0.999999
1
0.999995
1.00011
1.00229
1.02712
1.1983
1.55764
2.18704
2.86107
3.44599
3.66327
3.70178
3.73208
3.74683
3.73015
3.71521
3.70614
3.69884
3.70117
3.70366
3.70538
3.71239
3.72288
3.7329
3.7465
3.75497
3.75875
3.75704
3.7521
3.75269
3.75415
3.75349
3.75158
3.75081
3.7496
3.74844
3.74707
3.74567
3.7445
3.74317
3.74228
3.74351
3.74493
3.7466
3.74993
1
1
1
1
1
1
1
1
1
1
1
1
1
1
1
1
1
1
1
1
1
1
1
1
1
1
1
1
1
1
1
1
1
1
1
1
0.999999
0.999999
0.999997
1.00003
1.00209
1.0173
1.14434
1.48702
2.1045
2.77311
3.33958
3.60663
3.74242
3.77483
3.78377
3.77738
3.76404
3.74683
3.72637
3.70974
3.70618
3.71155
3.71746
3.72556
3.73014
3.7314
3.73368
3.7413
3.7467
3.74966
3.75025
3.74678
3.74733
3.74899
3.74977
3.74963
3.74869
3.7476
3.74643
3.74618
3.74756
3.74883
3.74975
3.7508
1
1
1
1
1
1
1
1
1
1
1
1
1
1
1
1
1
1
1
1
1
1
1
1
1
1
1
1
1
1
1
1
1
1
1
1
1
1
1
1
0.999999
1.00001
1.00132
1.01317
1.11128
1.5035
2.13075
2.72883
3.26552
3.61462
3.74147
3.76111
3.77932
3.78916
3.78721
3.77503
3.75909
3.74452
3.74163
3.74228
3.73836
3.72931
3.72493
3.7299
3.73457
3.7375
3.73882
3.73941
3.7396
3.74138
3.74306
3.74387
3.74501
3.74602
3.74567
3.74654
3.74871
3.75063
3.75177
3.75235
1
1
1
1
1
1
1
1
1
1
1
1
1
1
1
1
1
1
1
1
1
1
1
1
1
1
1
1
1
1
1
1
1
1
1
1
1
1
1
1
1
1
1
1
1.00105
1.01714
1.10732
1.48494
2.16104
2.85079
3.28645
3.52006
3.64803
3.72371
3.76771
3.78204
3.77823
3.76899
3.77307
3.77982
3.77971
3.76572
3.75152
3.74639
3.74204
3.73826
3.7375
3.73672
3.73532
3.73571
3.73741
3.73862
3.74105
3.74361
3.74383
3.74588
3.74884
3.75113
3.75183
3.75258
1
1
1
1
1
1
1
1
1
1
1
1
1
1
1
1
1
1
1
1
1
1
1
1
1
1
1
1
1
1
1
1
1
1
1
1
1
1
1
1
1
1
1
1
0.999999
1.00001
1.00094
1.01923
1.11723
1.5195
2.28018
3.06289
3.32928
3.49279
3.62512
3.68593
3.68874
3.70148
3.72811
3.75609
3.76684
3.76351
3.76023
3.7605
3.75861
3.75497
3.75262
3.74822
3.74479
3.74382
3.74303
3.74241
3.74397
3.74445
3.74518
3.7484
3.75184
3.75292
3.75275
3.75319
1
1
1
1
1
1
1
1
1
1
1
1
1
1
1
1
1
1
1
1
1
1
1
1
1
1
1
1
1
1
1
1
1
1
1
1
1
1
1
1
1
1
1
1
1
1
0.999999
1.00003
1.00115
1.02564
1.16127
1.63892
2.3896
3.21321
3.55436
3.6207
3.63694
3.63993
3.66005
3.68649
3.70895
3.7157
3.7219
3.73308
3.74545
3.75322
3.75429
3.75035
3.74658
3.74667
3.74742
3.74852
3.7472
3.74592
3.74791
3.75148
3.75381
3.75372
3.75348
3.7544
1
1
1
1
1
1
1
1
1
1
1
1
1
1
1
1
1
1
1
1
1
1
1
1
1
1
1
1
1
1
1
1
1
1
1
1
1
1
1
1
1
1
1
1
1
1
1
1
0.999998
1.00008
1.00226
1.04105
1.23262
1.78119
2.60782
3.34855
3.66312
3.69348
3.73411
3.72203
3.70584
3.70597
3.70731
3.7138
3.72282
3.72915
3.73395
3.73766
3.74287
3.7456
3.74831
3.74906
3.74454
3.74269
3.7444
3.74701
3.74835
3.74889
3.75142
3.75457
1
1
1
1
1
1
1
1
1
1
1
1
1
1
1
1
1
1
1
1
1
1
1
1
1
1
1
1
1
1
1
1
1
1
1
1
1
1
1
1
1
1
1
1
1
1
1
1
1
1
0.999998
1.00024
1.00455
1.06502
1.35829
2.03722
2.86594
3.44487
3.70645
3.77505
3.77726
3.76982
3.7623
3.7516
3.74215
3.73385
3.72591
3.73098
3.7364
3.73798
3.73982
3.74015
3.73775
3.73813
3.74036
3.74209
3.74291
3.74452
3.74783
3.75079
1
1
1
1
1
1
1
1
1
1
1
1
1
1
1
1
1
1
1
1
1
1
1
1
1
1
1
1
1
1
1
1
1
1
1
1
1
1
1
1
1
1
1
1
1
1
1
1
1
1
1
0.999999
1
1.00064
1.01117
1.13531
1.6213
2.39916
3.04763
3.5105
3.72925
3.75016
3.76082
3.77969
3.78068
3.77173
3.75745
3.75318
3.75247
3.74751
3.73955
3.73741
3.73811
3.74157
3.74423
3.74151
3.74004
3.74078
3.74401
3.74769
1
1
1
1
1
1
1
1
1
1
1
1
1
1
1
1
1
1
1
1
1
1
1
1
1
1
1
1
1
1
1
1
1
1
1
1
1
1
1
1
1
1
1
1
1
1
1
1
1
1
1
1
1
0.999999
1.00003
1.00277
1.03566
1.25957
1.91989
2.78169
3.36594
3.51308
3.59066
3.68627
3.72993
3.74722
3.75291
3.75702
3.76285
3.75679
3.74389
3.74153
3.74264
3.74869
3.75042
3.74766
3.74364
3.74097
3.74324
3.74733
1
1
1
1
1
1
1
1
1
1
1
1
1
1
1
1
1
1
1
1
1
1
1
1
1
1
1
1
1
1
1
1
1
1
1
1
1
1
1
1
1
1
1
1
1
1
1
1
1
1
1
1
1
1
1
1
1.00021
1.00908
1.09406
1.47856
2.31661
3.2878
3.52784
3.61484
3.65049
3.69468
3.71167
3.71965
3.73186
3.73466
3.73173
3.72928
3.73244
3.7435
3.7491
3.74834
3.74647
3.74335
3.74431
3.74872
1
1
1
1
1
1
1
1
1
1
1
1
1
1
1
1
1
1
1
1
1
1
1
1
1
1
1
1
1
1
1
1
1
1
1
1
1
1
1
1
1
1
1
1
1
1
1
1
1
1
1
1
1
1
1
1
1
1.00003
1.00123
1.03188
1.22655
1.93318
2.87966
3.43096
3.72602
3.76799
3.76596
3.74484
3.73286
3.72975
3.72394
3.71813
3.72342
3.73495
3.73932
3.73983
3.73957
3.73836
3.74014
3.746
1
1
1
1
1
1
1
1
1
1
1
1
1
1
1
1
1
1
1
1
1
1
1
1
1
1
1
1
1
1
1
1
1
1
1
1
1
1
1
1
1
1
1
1
1
1
1
1
1
1
1
1
1
1
1
1
1
1
1
1.00031
1.00691
1.12599
1.62864
2.40508
3.19488
3.65011
3.75168
3.76329
3.77341
3.77097
3.75856
3.74832
3.74626
3.74219
3.74203
3.74084
3.73791
3.73603
3.73713
3.74214
1
1
1
1
1
1
1
1
1
1
1
1
1
1
1
1
1
1
1
1
1
1
1
1
1
1
1
1
1
1
1
1
1
1
1
1
1
1
1
1
1
1
1
1
1
1
1
1
1
1
1
1
1
1
1
1
1
1
1
1
1.00003
1.0033
1.04337
1.33995
2.1081
3.09833
3.4206
3.54995
3.68039
3.72978
3.73641
3.74837
3.75525
3.75632
3.75369
3.74898
3.74628
3.74557
3.74231
3.742
1
1
1
1
1
1
1
1
1
1
1
1
1
1
1
1
1
1
1
1
1
1
1
1
1
1
1
1
1
1
1
1
1
1
1
1
1
1
1
1
1
1
1
1
1
1
1
1
1
1
1
1
1
1
1
1
1
1
1
1
1
1.00001
1.00048
1.01894
1.1592
1.81647
2.89311
3.46722
3.61511
3.66821
3.67659
3.69339
3.72044
3.73425
3.7384
3.74194
3.74584
3.74888
3.75296
3.74974
1
1
1
1
1
1
1
1
1
1
1
1
1
1
1
1
1
1
1
1
1
1
1
1
1
1
1
1
1
1
1
1
1
1
1
1
1
1
1
1
1
1
1
1
1
1
1
1
1
1
1
1
1
1
1
1
1
1
1
1
1
1
1
1.00015
1.00519
1.10552
1.60711
2.51691
3.33576
3.70875
3.74299
3.74941
3.74235
3.73109
3.72618
3.72596
3.73077
3.74326
3.75974
3.76184
1
1
1
1
1
1
1
1
1
1
1
1
1
1
1
1
1
1
1
1
1
1
1
1
1
1
1
1
1
1
1
1
1
1
1
1
1
1
1
1
1
1
1
1
1
1
1
1
1
1
1
1
1
1
1
1
1
1
1
1
1
1
1
1
1.00003
1.00267
1.05673
1.42105
2.24489
3.04483
3.55923
3.75791
3.76983
3.7565
3.74382
3.7322
3.72551
3.73363
3.75673
3.77349
1
1
1
1
1
1
1
1
1
1
1
1
1
1
1
1
1
1
1
1
1
1
1
1
1
1
1
1
1
1
1
1
1
1
1
1
1
1
1
1
1
1
1
1
1
1
1
1
1
1
1
1
1
1
1
1
1
1
1
1
1
1
1
1
1
1.00001
1.00118
1.02648
1.23822
2.05741
3.16737
3.54723
3.61394
3.66035
3.70989
3.72237
3.71315
3.69181
3.7003
3.74622
1
1
1
1
1
1
1
1
1
1
1
1
1
1
1
1
1
1
1
1
1
1
1
1
1
1
1
1
1
1
1
1
1
1
1
1
1
1
1
1
1
1
1
1
1
1
1
1
1
1
1
1
1
1
1
1
1
1
1
1
1
1
1
1
1
1
1
1.00029
1.01382
1.19836
1.90498
2.93119
3.48957
3.75506
3.80916
3.80812
3.76716
3.6876
3.65035
3.67283
1
1
1
1
1
1
1
1
1
1
1
1
1
1
1
1
1
1
1
1
1
1
1
1
1
1
1
1
1
1
1
1
1
1
1
1
1
1
1
1
1
1
1
1
1
1
1
1
1
1
1
1
1
1
1
1
1
1
1
1
1
1
1
1
1
1
1
1
1.00022
1.0092
1.14561
1.80626
2.75223
3.33102
3.73054
3.83697
3.84942
3.8078
3.69958
3.65539
1
1
1
1
1
1
1
1
1
1
1
1
1
1
1
1
1
1
1
1
1
1
1
1
1
1
1
1
1
1
1
1
1
1
1
1
1
1
1
1
1
1
1
1
1
1
1
1
1
1
1
1
1
1
1
1
1
1
1
1
1
1
1
1
1
1
1
1
1
1.0001
1.00644
1.10263
1.68485
2.68861
3.27889
3.71929
3.83479
3.84528
3.8134
3.7028
1
1
1
1
1
1
1
1
1
1
1
1
1
1
1
1
1
1
1
1
1
1
1
1
1
1
1
1
1
1
1
1
1
1
1
1
1
1
1
1
1
1
1
1
1
1
1
1
1
1
1
1
1
1
1
1
1
1
1
1
1
1
1
1
1
1
1
1
1
1
1.00006
1.00404
1.08215
1.62551
2.61814
3.27642
3.72485
3.82917
3.81877
3.76602
1
1
1
1
1
1
1
1
1
1
1
1
1
1
1
1
1
1
1
1
1
1
1
1
1
1
1
1
1
1
1
1
1
1
1
1
1
1
1
1
1
1
1
1
1
1
1
1
1
1
1
1
1
1
1
1
1
1
1
1
1
1
1
1
1
1
1
1
1
1
1
1.00004
1.0034
1.0696
1.58147
2.57152
3.33602
3.75467
3.77681
3.77464
1
1
1
1
1
1
1
1
1
1
1
1
1
1
1
1
1
1
1
1
1
1
1
1
1
1
1
1
1
1
1
1
1
1
1
1
1
1
1
1
1
1
1
1
1
1
1
1
1
1
1
1
1
1
1
1
1
1
1
1
1
1
1
1
1
1
1
1
1
1
1
1
1.00004
1.00246
1.0742
1.56206
2.46416
3.48183
3.60298
3.92118
1
1
1
1
1
1
1
1
1
1
1
1
1
1
1
1
1
1
1
1
1
1
1
1
1
1
1
1
1
1
1
1
1
1
1
1
1
1
1
1
1
1
1
1
1
1
1
1
1
1
1
1
1
1
1
1
1
1
1
1
1
1
1
1
1
1
1
1
1
1
1
1
1
1.00003
1.00398
1.05949
1.52614
2.76056
3.26042
5.07644
1
1
1
1
1
1
1
1
1
1
1
1
1
1
1
1
1
1
1
1
1
1
1
1
1
1
1
1
1
1
1
1
1
1
1
1
1
1
1
1
1
1
1
1
1
1
1
1
1
1
1
1
1
1
1
1
1
1
1
1
1
1
1
1
1
1
1
1
1
1
1
1
1
1
1.00007
1.00198
1.08987
1.64941
3.53815
7.5855
)
;

boundaryField
{
    inlet
    {
        type            fixedValue;
        value           uniform 1;
    }
    outlet
    {
        type            zeroGradient;
    }
    bottom
    {
        type            symmetryPlane;
    }
    top
    {
        type            symmetryPlane;
    }
    obstacle
    {
        type            zeroGradient;
    }
    defaultFaces
    {
        type            empty;
    }
}


// ************************************************************************* //
