/*--------------------------------*- C++ -*----------------------------------*\
| =========                 |                                                 |
| \\      /  F ield         | OpenFOAM: The Open Source CFD Toolbox           |
|  \\    /   O peration     | Version:  2206                                  |
|   \\  /    A nd           | Website:  www.openfoam.com                      |
|    \\/     M anipulation  |                                                 |
\*---------------------------------------------------------------------------*/
FoamFile
{
    version     2.0;
    format      ascii;
    arch        "LSB;label=32;scalar=64";
    class       volVectorField;
    location    "0.04";
    object      U;
}
// * * * * * * * * * * * * * * * * * * * * * * * * * * * * * * * * * * * * * //

dimensions      [0 1 -1 0 0 0 0];

internalField   nonuniform List<vector> 
75
(
(5.82828 -3.58562e-15 0)
(5.82828 -3.55311e-15 0)
(5.82828 1.1377e-16 0)
(5.82828 -7.95971e-17 0)
(5.82828 -2.39625e-16 0)
(5.82828 -2.00035e-16 0)
(5.82828 -4.39951e-15 0)
(5.82828 -4.26615e-15 0)
(5.82828 -4.20031e-15 0)
(5.82828 -3.66465e-15 0)
(5.82828 -3.62938e-15 0)
(5.82828 -3.58395e-15 0)
(5.82828 -6.75658e-15 0)
(5.82828 -6.31484e-15 0)
(5.82828 -2.29095e-15 0)
(5.82828 -3.34599e-15 0)
(5.82828 -8.16808e-16 0)
(5.82828 2.6192e-15 0)
(5.82828 5.56888e-15 0)
(5.82828 1.00942e-14 0)
(5.82828 3.36766e-15 0)
(5.82828 3.1718e-15 0)
(5.82828 5.58138e-15 0)
(5.82828 1.07135e-14 0)
(5.82828 1.05068e-14 0)
(5.80085 0.011145 0)
(5.75543 0.0500667 0)
(5.70346 0.118917 0)
(5.64627 0.218265 0)
(5.58987 0.340575 0)
(5.54734 0.476838 0)
(5.53412 0.593191 0)
(5.53956 0.699943 0)
(5.54917 0.783498 0)
(5.56463 0.902348 0)
(5.82828 4.46549e-06 0)
(5.8283 1.09405e-06 0)
(5.82975 -0.00465274 0)
(5.81873 0.0157735 0)
(5.78845 0.0844707 0)
(5.72893 0.249122 0)
(5.67906 0.437949 0)
(5.62526 0.672955 0)
(5.60551 0.835119 0)
(5.54605 1.171 0)
(5.82828 1.36664e-07 0)
(5.82828 -5.41423e-07 0)
(5.8283 -5.38502e-05 0)
(5.82829 -3.72207e-05 0)
(5.82843 -0.000586935 0)
(5.82791 0.00105023 0)
(5.8281 -0.000112729 0)
(5.82498 0.0131479 0)
(5.82461 0.0174829 0)
(5.81532 0.0998795 0)
(5.82828 3.61869e-09 0)
(5.82828 1.72808e-08 0)
(5.82828 3.66528e-07 0)
(5.82828 -9.99045e-07 0)
(5.82829 -3.50501e-05 0)
(5.82829 -1.89863e-05 0)
(5.82828 -2.82223e-05 0)
(5.82827 7.35881e-06 0)
(5.82828 -0.000112267 0)
(5.82824 0.000745267 0)
(5.82828 5.99869e-12 0)
(5.82828 4.75442e-10 0)
(5.82828 2.33837e-08 0)
(5.82828 5.40432e-09 0)
(5.82828 1.49571e-07 0)
(5.82828 -1.68191e-06 0)
(5.82828 -8.0805e-07 0)
(5.82828 -2.79238e-07 0)
(5.82828 -7.65103e-06 0)
(5.82828 -2.18196e-06 0)
)
;

boundaryField
{
    inlet
    {
        type            fixedValue;
        value           uniform (5.82828 0 0);
    }
    outlet
    {
        type            zeroGradient;
    }
    bottom
    {
        type            symmetryPlane;
    }
    top
    {
        type            symmetryPlane;
    }
    obstacle
    {
        type            slip;
    }
    defaultFaces
    {
        type            empty;
    }
}


// ************************************************************************* //
