/*--------------------------------*- C++ -*----------------------------------*\
| =========                 |                                                 |
| \\      /  F ield         | OpenFOAM: The Open Source CFD Toolbox           |
|  \\    /   O peration     | Version:  2206                                  |
|   \\  /    A nd           | Website:  www.openfoam.com                      |
|    \\/     M anipulation  |                                                 |
\*---------------------------------------------------------------------------*/
FoamFile
{
    version     2.0;
    format      ascii;
    arch        "LSB;label=32;scalar=64";
    class       volScalarField;
    location    "0.18";
    object      T;
}
// * * * * * * * * * * * * * * * * * * * * * * * * * * * * * * * * * * * * * //

dimensions      [0 0 0 1 0 0 0];

internalField   nonuniform List<scalar> 
4800
(
1
1
1
1
1
1
1
1
1
1
1
1
1
1
1
1
1
1
1
1
1
1
1
1
1
1
1
1
1
1
1
1
1
1
1
1
1
1
1
1
1
1
1
1
1
1
1
1
1
1
1
1
1
1
1
1
1
1
1
1
1
1
1
1
1
1
1
1
1
1
1
1
1
1
1
1
1
1
1
1
1
1
1
1
1
1
1
1
1
1
1
1
1
1
1
1
1
1
1
1
1
1
1
1
1
1
1
1
1
1
1
1
1
1
1
1
1
1
1
1
1
1
1
1
1
1
1
1
1
1
1
1
1
1
1
1
1
1
1
1
1
1
1
1
1
1
1
1
1
1
1
1
1
1
1
1
1
1
1
1
1
1
1
1
1
1
1
1
1
1
1
1
1
1
1
1
1
1
1
1
1
1
1
1
1
1
1
1
1
1
1
1
1
1
1
1
1
1
1
1
1
1
1
1
1
1
1
1
1
1
1
1
1
1
1
1
1
1
1
1
1
1
1
1
1
1
1
1
1
1
1
1
1
1
1
1
1
1
1
1
1
1
1
1
1
1
1
1
1
1
1
1
1
1
1
1
1
1
1
1
1
1
1
1
1
1
1
1
1
1
1
1
1
1
1
1
1
1
1
1
1
1
1
1
1
1
1
1
1
1
1
1
1
1
1
1
1
1
1
1
1
1
1
1
1
1
1
1
1
1
1
1
1
1
1
1
1
1
1
1
1
1
1
1
1
1
1
1
1
1
1
1
1
1
1
1
1
1
1
1
1
1
1
1
1
1
1
1
1
1
1
1
1
1
1
1
1
1
1
1
1
1
1
1
1
1
1
1
1
1
1
1
1
1
1
1
1
1
1
1
1
1
1
1
1
1
1
1
1
1
1
1
1
1
1
1
1
1
1
1
1
1
1
1
1
1
1
1
1
1
1
1
1
1
1
1
1
1
1
1
1
1
1
1
1
1
1
1
1
1
1
1
1
1
1
1
1
1
1
1
1
1
1
1
1
1
1
1
1
1
1
1
1
1
1
1
1
1
1
1
1
1
1
1
1
1
1
1
1
1
1
1
1
1
1
1
1
1
1
1
1
1
1
1
1
1
1
1
1
1
1
1
1
1
1
1
1
1
1
1
1
1
1
1
1
1
1
1
1
1
1
1
1
1
1
1
1
1
1
1
1
1
1
1
1
1
1
1
1
1
1
1
1
1
1
1
1
1
1
1
1
1
1
1
1
1
1
1
1
1
1
1
1
1
1
1
1
1
1
1
1
1
1
1
1
1
1
1
1
1
1
1
1
1
1
1
1
1
1
1
1
1
1
1
1
1
1
1
1
1
1
1
1
1
1
1
1
1
1
1
1
1
1
1
1
1
1
1
1
1
1
1
1
1
1
1
1
1
1
1
1
1
1
1
1
1
1
1
1
1
1
1
1
1
1
1
1
1
1
1
1
1
1
1
1
1
1
1
1
1
1
1
1
1
1
1
1
1
1
1
1
1
1
1
1
1
1
1
1
1
1
1
1
1
1
1
1
1
1
1
1
1
1
1
1
1
1
1
1
1
1
1
1
1
1
1
1
1
1
1
1
1
1
1
1
1
1
1
1
1
1
1
1
1
1
1
1
1
1
1
1
1
1
1
1
1
1
1
1
1
1
1
1
1
1
1
1
1
1
1
1
1
1
1
1
1
1
1
1
1
1
1
1
1
1
1
1
1
1
1
1
1
1
1
1
1
1
1
1
1
1
1
1
1
1
1
1
1
1
1
1
1
1
1
1
1
1
1
1
1
1
1
1
1
1
1
1
1
1
1
1
1
1
1
1
1
1
1
1
1
1
1
1
1
1
1
1
1
1
1
1
1
1
1
1
1
1
1
1
1
1
1
1
1
1
1
1
1
1
1
1
1
1
1
1
1
1
1
1
1
1
1
1
1
1
1
1
1
1
1
1
1
1
1
1
1
1
1
1
1
1
1
1
1
1
1
1
1
1
1
1
1
1
1
1
1
1
1
1
1
1
1
1
1
1
1
1
1
1
1
1
1
1
1
1
1
1
1
1
1
1
1
1
1
1
1
1
1
1
1
1
1
1
1
1
1
1
1
1
1
1
1
1
1
1
1
1
1
1
1
1
1
1
1
1
1
1
1
1
1
1
1
1
1
1
1
1
1
1
1
1
1
1
1
1
1
1
1
1
1
1
1
1
1
1
1
1
1
1
1
1
1
1
1
1
1
1
1
1
1
1
1
1
1
1
1
1
1
1
1
1
1
1
1
1
1
1
1
1
1
1
1
1
1
1
1
1
1
1
1
1
1
1
1
1
1
1
1
1
1
1
1
1
1
1
1
1
1
1
1
1
1
1
1
1
1
1
1
1
1
1
1
1
1
1
1
1
1
1
1
1
1
1
1
1
1
1
1
1
1
1
1
1
1
1
1
1
1
1
1
1
1
1
1
1
1
1
1
1
1
1
1
1
1
1
1
1
1
1
1
1
1
1
1
1
1
1
1
1
1
1
1
1
1
1
1
1
1
1
1
1
1
1
1
1
1
1
1
1
1
1
1
1
1
1
1
1
1
1
1
1
1
1
1
1
1
1
1
1
1
1
1
1
1
1
1
1
1
1
1
1
1
1
1
1
1
1
1
1
1
1
1
1
1
1
1
1
1
1
1
1
1
1
1
1
1
1
1
1
1
1
1
1
1
1
1
1
1
1
1
1
1
1
1
1
1
1
1
1
1
1
1
1
1
1
1
1
1
1
1
1
1
1
1
1
1
1
1
1
1
1
1
1
1
1
1
1
1
1
1
1
1
1
1
1
1
1
1
1
1
1
1
1
1
1
1
1
1
1
1
1
1
1
1
1
1
1
1
1
1
1
1
1
1
1
1
1
1
1
1
1
1
1
1
1
1
1
1
1
1
1
1
1
1
1
1
1
1
1
1
1
1
1
1
1
1
1
1
1
1
1
1
1
1
1
1
1
1
1
1
1
1
1
1
1
1
1
1
1
1
1
1
1
1
1
1
1
1
1
1
1
1
1
1
1
1
1
1
1
1
1
1
1
1
1
1
1
1
1
1
1
1
1
1
1
1
1
1
1
1
1
1
1
1
1
1
1
1
1
1
1
1
1
1
1
1
1
1
1
1
1
1
1
1
1
1
1
1
1
1
1
1
1
1
1
1
1
1
1
1
1
1
1
1
1
1
1
1
1
1
1
1
1
1
1
1
1
1
1
1
1
1
1
1
1
1
1
1
1
1
1
1
1
1
1
1
1
1
1
1
1
1
1
1
1
1
1
1
1
1
1
1
1
1
1
1
1
1
1
1
1
1
1
1
1
1
1
1
1
1
1
1
1
1
1
1
1
1
1
1
1
1
1
1
1
1
1
1
1
1
1
1
1
1
1
1
1
1
1
1
1
1
1
1
1
1
1
1
1
1
1
1
1
1
1
1
1
1
1
1
1
1
1
1
1
1
1
1
1
1
1
1
1
1
1
1
1
1
1
1
1
1
1
1
1
1
1
1
1
1
1
1
1
1
1
1
1
1
1
1
1
1
1
1
1
1
1
1
1
1
1
1
1
1
1
1
1
1
1
1
1
1
1
1
1
1
1
1
1
1
1.07011
1.16237
1.25455
1.3534
1.46222
1.55017
1.61592
1.6983
1.82134
1.89743
1.92914
1.96355
2.02342
2.07048
2.07114
2.05524
2.04309
2.03075
2.00316
1.95485
1.89775
1.84385
1.82036
1.81467
1.80684
1.79852
1.80041
1.80368
1.80656
1.8117
1.81761
1.82546
1.83611
1.84703
1.85464
1.85694
1.85598
1.85337
1.85137
1.85106
1.85113
1.85134
1.85308
1.85879
1.86486
1.86734
1.86774
1.86688
1.86451
1.8626
1.8607
1.85873
1.85704
1.8561
1.85637
1.85999
1.86633
1.87149
1.87385
1.87392
1.87248
1.86894
1.86291
1.85752
1.85529
1.85491
1.85595
1.86024
1.8677
1.87391
1.87735
1.87876
1.87868
1.87663
1.87321
1.86839
1.86246
1.85936
1.85863
1.86119
1
1
0.999982
0.999497
0.999562
1.03824
1.10617
1.13754
1.20285
1.33143
1.42972
1.47659
1.53647
1.62991
1.69496
1.71617
1.75543
1.79555
1.80555
1.83504
1.8698
1.8928
1.90267
1.90093
1.89607
1.88462
1.87944
1.87273
1.86226
1.85263
1.84375
1.8438
1.84423
1.8444
1.84513
1.84932
1.85391
1.85804
1.86209
1.86326
1.86266
1.86195
1.86207
1.8623
1.86346
1.86504
1.86622
1.86735
1.86847
1.8688
1.8693
1.86958
1.86905
1.86658
1.86397
1.86364
1.86421
1.86635
1.86988
1.87261
1.87325
1.87255
1.87096
1.86989
1.86883
1.86808
1.86792
1.86833
1.86907
1.86931
1.8701
1.87128
1.87279
1.87404
1.87352
1.87176
1.87146
1.87112
1.87095
1.87243
1
1
1
1
0.999999
0.999999
1
1
1
1
0.999351
1.00704
1.0284
1.09292
1.22554
1.33923
1.45796
1.61864
1.75975
1.89203
1.95574
1.97852
1.99163
1.98863
1.97969
1.96774
1.95427
1.94181
1.92232
1.89308
1.87704
1.86895
1.86383
1.86277
1.86337
1.8665
1.87201
1.87952
1.88476
1.88516
1.88409
1.88282
1.88245
1.88185
1.8801
1.87769
1.87569
1.87555
1.87775
1.88361
1.88822
1.88882
1.88754
1.88441
1.88062
1.87649
1.87447
1.87414
1.87396
1.87459
1.87793
1.88264
1.88567
1.88634
1.88619
1.8857
1.88435
1.88234
1.87873
1.8753
1.87229
1.87044
1.87017
1.87254
1.87888
1.88381
1.88548
1.88563
1.88586
1.88528
1
1
1
1
1
1
1
1
1
1
1
1
1
1
1
0.999518
1.00146
1.04589
1.19393
1.38413
1.60532
1.73754
1.86715
1.91894
1.92657
1.94429
1.93909
1.93301
1.93765
1.95004
1.95313
1.94584
1.92834
1.91874
1.91279
1.90841
1.90044
1.89753
1.89578
1.89471
1.89629
1.90045
1.90445
1.90628
1.90578
1.90281
1.89781
1.89509
1.89495
1.8974
1.9043
1.90902
1.9099
1.90891
1.90479
1.89887
1.89484
1.89226
1.88989
1.88831
1.88842
1.89063
1.8956
1.90121
1.90454
1.90482
1.90265
1.89905
1.89411
1.88747
1.8822
1.88031
1.88033
1.88176
1.88602
1.8921
1.89642
1.89817
1.89893
1.8971
1
1
1
1
1
1
1
1
1
1
1
1
1
1
1
1
1
1
1
0.999341
1.01777
1.0939
1.22897
1.45799
1.62904
1.75835
1.86176
1.91438
1.98024
2.00166
1.99862
1.99505
1.98531
1.97166
1.9588
1.94164
1.92451
1.91257
1.91082
1.91129
1.91361
1.91865
1.92395
1.92544
1.92526
1.92316
1.91716
1.91336
1.91343
1.91443
1.91651
1.9197
1.92332
1.92479
1.92435
1.92139
1.91666
1.91306
1.91022
1.90688
1.90423
1.90397
1.90529
1.90801
1.91243
1.91666
1.91793
1.91673
1.91203
1.90594
1.90034
1.89757
1.89737
1.89808
1.89949
1.90134
1.90315
1.90457
1.90609
1.90555
1
1
1
1
1
1
1
1
1
1
1
1
1
1
1
1
1
1
1
1
1
1
0.999625
1.00202
1.02964
1.09542
1.31371
1.52449
1.67937
1.79169
1.8447
1.91396
1.95015
1.95032
1.95112
1.95402
1.94771
1.93683
1.93205
1.9295
1.92907
1.93387
1.93776
1.93646
1.93358
1.9295
1.92387
1.91993
1.92
1.92239
1.92533
1.92696
1.92835
1.92984
1.93128
1.93286
1.93397
1.934
1.93279
1.92924
1.92309
1.91967
1.91938
1.91915
1.91875
1.91906
1.92164
1.92418
1.92463
1.92414
1.9221
1.91914
1.91796
1.91781
1.91708
1.91652
1.91509
1.91286
1.9104
1.90887
1
1
1
1
1
1
1
1
1
1
1
1
1
1
1
1
1
1
1
1
1
1
1
1
1
1
0.999419
1.00836
1.04553
1.19717
1.38245
1.53809
1.69886
1.80254
1.91407
1.94953
1.95234
1.95357
1.95114
1.94573
1.93897
1.92923
1.92423
1.92355
1.92455
1.92701
1.92934
1.93019
1.92937
1.92676
1.92567
1.92629
1.9269
1.92642
1.92648
1.92898
1.93735
1.94331
1.94385
1.94318
1.94074
1.93341
1.92584
1.92248
1.92096
1.92018
1.92096
1.92443
1.92957
1.93338
1.93472
1.93437
1.93372
1.93335
1.93241
1.92802
1.92093
1.91625
1.9136
1.9137
1
1
1
1
1
1
1
1
1
1
1
1
1
1
1
1
1
1
1
1
1
1
1
1
1
1
1
1
1
0.999989
1.00018
1.01472
1.13365
1.29791
1.46484
1.6318
1.75221
1.86478
1.89453
1.90789
1.90859
1.90351
1.90598
1.91416
1.92138
1.92991
1.93477
1.9357
1.93415
1.931
1.9305
1.92779
1.92068
1.91726
1.91733
1.91966
1.92672
1.93782
1.94305
1.94319
1.94272
1.94176
1.93762
1.93149
1.92583
1.92341
1.92365
1.92584
1.92773
1.93104
1.93512
1.93792
1.93964
1.93983
1.93828
1.93472
1.92967
1.92313
1.92062
1.92108
1
1
1
1
1
1
1
1
1
1
1
1
1
1
1
1
1
1
1
1
1
1
1
1
1
1
1
1
1
1
1
1
1
0.999464
1.0059
1.08177
1.20718
1.39239
1.57455
1.71554
1.83667
1.87111
1.89126
1.90083
1.90703
1.91632
1.9246
1.92697
1.92657
1.92498
1.92443
1.92448
1.9202
1.91138
1.90707
1.90808
1.91263
1.91975
1.92781
1.93342
1.93648
1.93771
1.93854
1.93848
1.9363
1.93165
1.9279
1.92698
1.92772
1.92864
1.92914
1.92981
1.93138
1.93433
1.93584
1.93554
1.93396
1.93218
1.93044
1.92924
1
1
1
1
1
1
1
1
1
1
1
1
1
1
1
1
1
1
1
1
1
1
1
1
1
1
1
1
1
1
1
1
1
1
1
1
0.999614
1.00269
1.06403
1.16851
1.33412
1.53213
1.69092
1.80348
1.82069
1.83928
1.86066
1.87734
1.89079
1.90336
1.9151
1.92241
1.92096
1.91695
1.91075
1.90677
1.90529
1.90586
1.90869
1.91071
1.91415
1.91989
1.92733
1.93152
1.93139
1.93289
1.9349
1.93463
1.9312
1.92357
1.92019
1.92014
1.92146
1.92465
1.92817
1.92996
1.93085
1.93181
1.9338
1.93611
1
1
1
1
1
1
1
1
1
1
1
1
1
1
1
1
1
1
1
1
1
1
1
1
1
1
1
1
1
1
1
1
1
1
1
1
1
1
1
0.999699
1.00139
1.04086
1.12819
1.31259
1.50807
1.6477
1.74741
1.80385
1.84348
1.86344
1.88495
1.90425
1.90943
1.90929
1.90898
1.91092
1.91182
1.9088
1.9007
1.89421
1.89324
1.89587
1.90119
1.9113
1.92146
1.92655
1.9298
1.93171
1.93192
1.92802
1.91855
1.91352
1.91368
1.91696
1.92115
1.9228
1.92368
1.92599
1.93148
1.93445
1
1
1
1
1
1
1
1
1
1
1
1
1
1
1
1
1
1
1
1
1
1
1
1
1
1
1
1
1
1
1
1
1
1
1
1
1
1
1
1
1
1
0.999747
1.00166
1.03824
1.10667
1.27778
1.51335
1.7053
1.75574
1.77889
1.8198
1.86166
1.88438
1.89767
1.90353
1.90932
1.90808
1.90354
1.89466
1.88449
1.88309
1.88794
1.8943
1.89985
1.90491
1.91194
1.91895
1.92105
1.91938
1.91657
1.91679
1.91683
1.91723
1.91637
1.91526
1.91598
1.91907
1.92252
1.92688
1
1
1
1
1
1
1
1
1
1
1
1
1
1
1
1
1
1
1
1
1
1
1
1
1
1
1
1
1
1
1
1
1
1
1
1
1
1
1
1
1
1
1
1
1
0.999781
1.00224
1.03852
1.15168
1.35194
1.50546
1.62888
1.73784
1.80361
1.83294
1.86317
1.89096
1.89466
1.89437
1.89216
1.89266
1.89479
1.89486
1.89035
1.88642
1.88619
1.88665
1.89088
1.89774
1.90313
1.90645
1.90829
1.91398
1.91845
1.91932
1.91752
1.91258
1.91181
1.913
1.91702
1
1
1
1
1
1
1
1
1
1
1
1
1
1
1
1
1
1
1
1
1
1
1
1
1
1
1
1
1
1
1
1
1
1
1
1
1
1
1
1
1
1
1
1
1
1
1
1
0.999784
1.0074
1.03419
1.1292
1.37885
1.63171
1.72678
1.75923
1.80734
1.85073
1.87066
1.88126
1.88853
1.89813
1.90088
1.89812
1.89142
1.88233
1.87747
1.87913
1.88326
1.88556
1.88785
1.89617
1.90798
1.9129
1.91339
1.91119
1.90913
1.90964
1.91004
1.90978
1
1
1
1
1
1
1
1
1
1
1
1
1
1
1
1
1
1
1
1
1
1
1
1
1
1
1
1
1
1
1
1
1
1
1
1
1
1
1
1
1
1
1
1
1
1
1
1
0.999999
1
0.999952
0.999995
1.0155
1.09789
1.30109
1.46652
1.59384
1.72488
1.79312
1.82075
1.85128
1.88429
1.89156
1.8906
1.88767
1.88771
1.88981
1.88809
1.88252
1.87714
1.87615
1.88079
1.88816
1.89387
1.89784
1.89893
1.90028
1.90265
1.9065
1.9075
1
1
1
1
1
1
1
1
1
1
1
1
1
1
1
1
1
1
1
1
1
1
1
1
1
1
1
1
1
1
1
1
1
1
1
1
1
1
1
1
1
1
1
1
1
1
1
1
1
1
1
0.999999
1.00001
0.99991
1.0049
1.02953
1.10345
1.33691
1.62512
1.74734
1.77999
1.81628
1.85392
1.86667
1.87294
1.88464
1.89271
1.89425
1.88903
1.88272
1.88024
1.88028
1.88034
1.88467
1.88542
1.88573
1.8864
1.89157
1.89867
1.89998
1
1
1
1
1
1
1
1
1
1
1
1
1
1
1
1
1
1
1
1
1
1
1
1
1
1
1
1
1
1
1
1
1
1
1
1
1
1
1
1
1
1
1
1
1
1
1
1
1
1
1
1
1
0.999998
1
0.999969
1.00009
1.01158
1.10724
1.36492
1.54364
1.66179
1.77191
1.81103
1.82902
1.84424
1.86824
1.88382
1.88443
1.88205
1.88344
1.88855
1.89369
1.89256
1.88454
1.87595
1.87517
1.87827
1.88431
1.88899
1
1
1
1
1
1
1
1
1
1
1
1
1
1
1
1
1
1
1
1
1
1
1
1
1
1
1
1
1
1
1
1
1
1
1
1
1
1
1
1
1
1
1
1
1
1
1
1
1
1
1
1
1
1
1
0.999999
0.999999
0.999976
1.00013
1.01526
1.07262
1.18833
1.42917
1.72155
1.81276
1.81581
1.83168
1.85616
1.86476
1.86261
1.86922
1.88882
1.8965
1.89493
1.88725
1.87971
1.87512
1.87605
1.87968
1.88333
1
1
1
1
1
1
1
1
1
1
1
1
1
1
1
1
1
1
1
1
1
1
1
1
1
1
1
1
1
1
1
1
1
1
1
1
1
1
1
1
1
1
1
1
1
1
1
1
1
1
1
1
1
1
1
1
1
0.999999
0.999998
1.00002
1
1.00179
1.03004
1.2196
1.51852
1.68588
1.77
1.83929
1.8484
1.84317
1.84465
1.86348
1.87976
1.88203
1.87786
1.87477
1.87837
1.885
1.88989
1.88773
1
1
1
1
1
1
1
1
1
1
1
1
1
1
1
1
1
1
1
1
1
1
1
1
1
1
1
1
1
1
1
1
1
1
1
1
1
1
1
1
1
1
1
1
1
1
1
1
1
1
1
1
1
1
1
1
1
1
1
1
1
0.999998
0.999978
1.00301
1.07548
1.23217
1.40967
1.64386
1.83935
1.86755
1.86179
1.86622
1.86318
1.86299
1.85636
1.85173
1.86338
1.88606
1.89286
1.88868
1
1
1
1
1
1
1
1
1
1
1
1
1
1
1
1
1
1
1
1
1
1
1
1
1
1
1
1
1
1
1
1
1
1
1
1
1
1
1
1
1
1
1
1
1
1
1
1
1
1
1
1
1
1
1
1
1
1
1
1
1
1
0.999999
0.999992
1.00018
1.00304
1.03612
1.16171
1.50028
1.74124
1.83188
1.86516
1.86648
1.86871
1.86226
1.85599
1.86245
1.87637
1.88534
1.88218
1
1
1
1
1
1
1
1
1
1
1
1
1
1
1
1
1
1
1
1
1
1
1
1
1
1
1
1
1
1
1
1
1
1
1
1
1
1
1
1
1
1
1
1
1
1
1
1
1
1
1
1
1
1
1
1
1
1
1
1
1
1
1
0.999999
1
0.999997
1.00001
1.00177
1.06865
1.34554
1.54371
1.68688
1.82018
1.87193
1.87711
1.88046
1.89096
1.88747
1.87923
1.87066
1
1
1
1
1
1
1
1
1
1
1
1
1
1
1
1
1
1
1
1
1
1
1
1
1
1
1
1
1
1
1
1
1
1
1
1
1
1
1
1
1
1
1
1
1
1
1
1
1
1
1
1
1
1
1
1
1
1
1
1
1
1
1
1
1
1
1
0.999995
1.00038
1.01283
1.10844
1.28652
1.54417
1.74372
1.82482
1.88682
1.89537
1.89501
1.88927
1.87877
1
1
1
1
1
1
1
1
1
1
1
1
1
1
1
1
1
1
1
1
1
1
1
1
1
1
1
1
1
1
1
1
1
1
1
1
1
1
1
1
1
1
1
1
1
1
1
1
1
1
1
1
1
1
1
1
1
1
1
1
1
1
1
1
1
1
1
0.999999
0.999999
0.999989
1.00083
1.00925
1.10328
1.41679
1.69755
1.79089
1.85956
1.88267
1.87941
1.88062
1
1
1
1
1
1
1
1
1
1
1
1
1
1
1
1
1
1
1
1
1
1
1
1
1
1
1
1
1
1
1
1
1
1
1
1
1
1
1
1
1
1
1
1
1
1
1
1
1
1
1
1
1
1
1
1
1
1
1
1
1
1
1
1
1
1
1
1
1
0.999999
1
0.999993
1.00144
1.04045
1.32003
1.56717
1.7483
1.82625
1.8265
1.84754
1
1
1
1
1
1
1
1
1
1
1
1
1
1
1
1
1
1
1
1
1
1
1
1
1
1
1
1
1
1
1
1
1
1
1
1
1
1
1
1
1
1
1
1
1
1
1
1
1
1
1
1
1
1
1
1
1
1
1
1
1
1
1
1
1
1
1
1
1
1
1
1
0.999997
1.00026
1.01983
1.13286
1.34106
1.63678
1.81016
1.85788
1
1
1
1
1
1
1
1
1
1
1
1
1
1
1
1
1
1
1
1
1
1
1
1
1
1
1
1
1
1
1
1
1
1
1
1
1
1
1
1
1
1
1
1
1
1
1
1
1
1
1
1
1
1
1
1
1
1
1
1
1
1
1
1
1
1
1
1
1
1
1
1
1
0.999999
1.00003
1.0017
1.02447
1.17901
1.54232
1.82231
1
1
1
1
1
1
1
1
1
1
1
1
1
1
1
1
1
1
1
1
1
1
1
1
1
1
1
1
1
1
1
1
1
1
1
1
1
1
1
1
1
1
1
1
1
1
1
1
1
1
1
1
1
1
1
1
1
1
1
1
1
1
1
1
1
1
1
1
1
1
1
1
1
1
1
0.999998
1.00005
1.00647
1.11265
1.64378
1
1
1
1
1
1
1
1
1
1
1
1
1
1
1
1
1
1
1
1
1
1
1
1
1
1
1
1
1
1
1
1
1
1
1
1
1
1
1
1
1
1
1
1
1
1
1
1
1
1
1
1
1
1
1
1
1
1
1
1
1
1
1
1
1
1
1
1
1
1
1
1
1
1
1
1
1
1.00002
1.00268
1.26823
1
1
1
1
1
1
1
1
1
1
1
1
1
1
1
1
1
1
1
1
1
1
1
1
1
1
1
1
1
1
1
1
1
1
1
1
1
1
1
1
1
1
1
1
1
1
1
1
1
1
1
1
1
1
1
1
1
1
1
1
1
1
1
1
1
1
1
1
1
1
1
1
1
1
1
1
1
1
1.00002
1.02549
1
1
1
1
1
1
1
1
1
1
1
1
1
1
1
1
1
1
1
1
1
1
1
1
1
1
1
1
1
1
1
1
1
1
1
1
1
1
1
1
1
1
1
1
1
1
1
1
1
1
1
1
1
1
1
1
1
1
1
1
1
1
1
1
1
1
1
1
1
1
1
1
1
1
1
1
1
1
1
1.00058
1
1
1
1
1
1
1
1
1
1
1
1
1
1
1
1
1
1
1
1
1
1
1
1
1
1
1
1
1
1
1
1
1
1
1
1
1
1
1
1
1
1
1
1
1
1
1
1
1
1
1
1
1
1
1
1
1
1
1
1
1
1
1
1
1
1
1
1
1
1
1
1
1
1
1
1
1
1
1
1.00001
1
1
1
1
1
1
1
1
1
1
1
1
1
1
1
1
1
1
1
1
1
1
1
1
1
1
1
1
1
1
1
1
1
1
1
1
1
1
1
1
1
1
1
1
1
1
1
1
1
1
1
1
1
1
1
1
1
1
1
1
1
1
1
1
1
1
1
1
1
1
1
1
1
1
1
1
1
1
1
1
1
1
1
1
1
1
1
1
1
1
1
1
1
1
1
1
1
1
1
1
1
1
1
1
1
1
1
1
1
1
1
1
1
1
1
1
1
1
1
1
1
1
1
1
1
1
1
1
1
1
1
1
1
1
1
1
1
1
1
1
1
1
1
1
1
1
1
1
1
1
1
1
1
1
1
1
1
1
1
1
1
1
1
1
1
1
1
1
1
1
1
1
1
1
1
1
1
1
1
1
1
1
1
1
1
1
1
1
1
1
1
1
1
1
1
1
1
1
1
1
1
1
1
1
1
1
1
1
1
1
1
1
1
1
1
1
1
1
1
1
1
1
1
1
1
1
1
1
1
1
1
1
1
1
1
1
1
1
1
1
1
1
1
1
1
1
1
1
1
1
1
1
1
1
1
1
1
1
1
1
1
1
1
1
1
1
1
1
1
1
1
1
1
1
1
1
1
1
1
1
1
1
1
1
1
1
1
1
1
1
1
1
1
1
1
1
1
1
1
1
1
1
1
1
1
1
1
1
1
1
1
1
1
1
1
1
1
1
1
1
1
1
1
1
1
1
1
1
1
1
1
1
1
1
1
1
1
1
1
1
1
1
1
1
1
1
1
1
1
1
1
1
1
1
1
1
1
1
1
1
1
1
1
1
1
1
1
1
1
1
1
1
1
1
1
1
1
1
1
1
1
1
1
1
1
1
1
1
1
1
1
1
1
1
1
1
1
1
1
1
1
1
1
1
1
1
1
1
1
1
1
1
1
1
1
1
1
1
1
1
1
1
1
1
1
1
1
1
1
1
1
1
1
1
1
1
1
1
1
1
1
1
1
1
1
1
1
1
1
1
1
1
1
1
1
1
1
1
1
1
1
1
1
1
1
1
1
1
1
1
1
1
1
1
1
1
1
1
1
1
1
1
1
1
1
1
1
1
1
1
1
1
1
1
1
1
1
1
1
1
1
1
1
1
1
1
1
1
1
1
1
1
1
1
1
1
1
1
1
1
1
1
1
1
1
1
1
1
1
1
1
1
1
1
1
1
1
1
1
1
1
1
1
1
1
1
1
1
1
1
1
1
1
1
1
1
1
1
1
1
1
1
1
1
1
1
1
1
1
1
1
1
1
1
1
1
1
1
1
1
1
1
1
1
1
1
1
1
1
1
1
1
1
1
1
1
1
1
1
1
1
1
1
1
1
1
1
1
1
1
1
1
1
1
1
1
1
1
1
1
1
1
1
1
1
1
1
1
1
1
1
1
1
1
1
1
1
1
1
1
)
;

boundaryField
{
    inlet
    {
        type            fixedValue;
        value           uniform 1;
    }
    outlet
    {
        type            zeroGradient;
    }
    bottom
    {
        type            symmetryPlane;
    }
    top
    {
        type            symmetryPlane;
    }
    obstacle
    {
        type            zeroGradient;
    }
    defaultFaces
    {
        type            empty;
    }
}


// ************************************************************************* //
