/*--------------------------------*- C++ -*----------------------------------*\
| =========                 |                                                 |
| \\      /  F ield         | OpenFOAM: The Open Source CFD Toolbox           |
|  \\    /   O peration     | Version:  2206                                  |
|   \\  /    A nd           | Website:  www.openfoam.com                      |
|    \\/     M anipulation  |                                                 |
\*---------------------------------------------------------------------------*/
FoamFile
{
    version     2.0;
    format      ascii;
    arch        "LSB;label=32;scalar=64";
    class       volVectorField;
    location    "0.18";
    object      U;
}
// * * * * * * * * * * * * * * * * * * * * * * * * * * * * * * * * * * * * * //

dimensions      [0 1 -1 0 0 0 0];

internalField   nonuniform List<vector> 
4800
(
(5.70707 -6.40111e-15 0)
(5.70707 -4.70415e-15 0)
(5.70707 -2.01701e-14 0)
(5.70707 -5.23124e-14 0)
(5.70707 -4.79316e-14 0)
(5.70707 -4.87851e-14 0)
(5.70707 -5.6213e-14 0)
(5.70707 -3.35691e-14 0)
(5.70707 -1.87466e-14 0)
(5.70707 -4.38076e-15 0)
(5.70707 -6.40444e-15 0)
(5.70707 -1.08285e-14 0)
(5.70707 1.7383e-14 0)
(5.70707 -1.01851e-14 0)
(5.70707 -1.60528e-14 0)
(5.70707 -9.66167e-15 0)
(5.70707 2.05702e-14 0)
(5.70707 1.36257e-14 0)
(5.70707 -2.67313e-14 0)
(5.70707 -2.02535e-14 0)
(5.70707 -1.67629e-14 0)
(5.70707 3.96302e-14 0)
(5.70707 3.00885e-14 0)
(5.70707 -5.41093e-15 0)
(5.70707 -6.69282e-14 0)
(5.70707 -5.9827e-14 0)
(5.70707 -5.30758e-15 0)
(5.70707 2.65679e-14 0)
(5.70707 2.93317e-14 0)
(5.70707 7.01621e-14 0)
(5.70707 1.02791e-13 0)
(5.70707 1.11796e-13 0)
(5.70707 1.09219e-13 0)
(5.70707 9.25426e-14 0)
(5.70707 8.99255e-14 0)
(5.70707 7.29426e-14 0)
(5.70707 5.83001e-14 0)
(5.70707 5.65164e-14 0)
(5.70707 1.57681e-13 0)
(5.70707 1.44675e-13 0)
(5.70707 -2.73381e-15 0)
(5.70707 9.47164e-15 0)
(5.70707 2.40975e-14 0)
(5.70707 -5.44094e-15 0)
(5.70707 -2.47809e-14 0)
(5.70707 -2.55311e-14 0)
(5.70707 -6.24775e-15 0)
(5.70707 -9.01822e-15 0)
(5.70707 -4.40743e-15 0)
(5.70707 -2.03869e-14 0)
(5.70707 -4.18906e-14 0)
(5.70707 -4.84884e-14 0)
(5.70707 -4.87751e-15 0)
(5.70707 -1.11419e-14 0)
(5.70707 -3.14988e-14 0)
(5.70707 -3.34191e-14 0)
(5.70707 -5.88102e-15 0)
(5.70707 -4.36742e-16 0)
(5.70707 -2.01768e-14 0)
(5.70707 -4.63913e-14 0)
(5.70707 -4.20073e-15 0)
(5.70707 9.05656e-14 0)
(5.70707 9.8677e-14 0)
(5.70707 3.62496e-14 0)
(5.70707 -2.47809e-14 0)
(5.70707 -1.64195e-14 0)
(5.70707 -4.93752e-15 0)
(5.70707 4.56079e-14 0)
(5.70707 1.07272e-13 0)
(5.70707 1.59814e-13 0)
(5.70707 1.57971e-13 0)
(5.70707 1.45779e-13 0)
(5.70707 9.32461e-14 0)
(5.70707 6.72916e-14 0)
(5.70707 9.15291e-14 0)
(5.70707 8.79452e-14 0)
(5.70707 7.78368e-14 0)
(5.70707 7.20791e-14 0)
(5.70707 1.10296e-13 0)
(5.70707 9.46916e-14 0)
(5.70707 -3.68064e-15 0)
(5.70707 -6.95787e-15 0)
(5.70707 2.02068e-14 0)
(5.70707 3.83099e-14 0)
(5.70707 4.08404e-15 0)
(5.70707 -1.85999e-14 0)
(5.70707 -2.45242e-14 0)
(5.70707 -3.58262e-14 0)
(5.70707 -4.10304e-14 0)
(5.70707 -2.33674e-14 0)
(5.70707 -3.78265e-14 0)
(5.70707 -1.05388e-13 0)
(5.70707 -1.26665e-13 0)
(5.70707 -1.35787e-13 0)
(5.70707 -1.72877e-13 0)
(5.70707 -1.74043e-13 0)
(5.70707 -1.377e-13 0)
(5.70707 -7.53497e-14 0)
(5.70707 -7.87336e-14 0)
(5.70707 -8.55481e-14 0)
(5.70707 1.92433e-14 0)
(5.70707 7.25459e-14 0)
(5.70707 1.29629e-13 0)
(5.70707 1.78828e-13 0)
(5.70707 2.03792e-13 0)
(5.70707 1.62211e-13 0)
(5.70707 9.69334e-14 0)
(5.70707 3.89734e-14 0)
(5.70707 7.11556e-14 0)
(5.70707 9.2526e-14 0)
(5.70707 7.99271e-14 0)
(5.70707 9.18559e-14 0)
(5.70707 1.10942e-13 0)
(5.70707 1.18227e-13 0)
(5.70707 8.58182e-14 0)
(5.70707 1.05955e-13 0)
(5.70707 8.44646e-14 0)
(5.70707 1.5496e-14 0)
(5.70707 -4.84317e-14 0)
(5.70707 -7.45948e-16 0)
(5.70707 1.53026e-15 0)
(5.70707 -1.05685e-15 0)
(5.70707 -1.64495e-14 0)
(5.70707 -1.36124e-14 0)
(5.70707 -1.76597e-14 0)
(5.70707 -2.86483e-14 0)
(5.70707 -4.08037e-14 0)
(5.70707 -3.58729e-14 0)
(5.70707 -2.06802e-14 0)
(5.70707 -3.02319e-14 0)
(5.70707 -3.99902e-14 0)
(5.70707 -6.67882e-14 0)
(5.70707 -1.04945e-13 0)
(5.70707 -8.26576e-14 0)
(5.70707 -4.9922e-14 0)
(5.70707 -3.91368e-14 0)
(5.70707 -6.23608e-14 0)
(5.70707 -1.44325e-13 0)
(5.70707 -1.5518e-13 0)
(5.70707 -1.25632e-13 0)
(5.70707 -1.79998e-14 0)
(5.70707 3.80332e-14 0)
(5.70707 5.35392e-14 0)
(5.70707 1.21001e-13 0)
(5.70707 1.75484e-13 0)
(5.70707 1.22775e-13 0)
(5.70707 1.27339e-13 0)
(5.70707 1.19294e-13 0)
(5.70707 6.99287e-14 0)
(5.70707 4.11071e-15 0)
(5.70707 2.18838e-14 0)
(5.70707 3.21756e-14 0)
(5.70707 5.46728e-14 0)
(5.70707 1.03181e-13 0)
(5.70707 1.1425e-13 0)
(5.70707 1.13203e-13 0)
(5.70707 9.42163e-14 0)
(5.70707 3.03052e-14 0)
(5.70707 -4.50144e-14 0)
(5.70707 -4.21374e-14 0)
(5.70707 1.24355e-14 0)
(5.70707 4.11404e-15 0)
(5.70707 2.40041e-16 0)
(5.70707 7.43462e-15 0)
(5.70707 4.62113e-14 0)
(5.70707 9.79502e-14 0)
(5.70707 1.25648e-13 0)
(5.70707 1.29046e-13 0)
(5.70707 1.09842e-13 0)
(5.70707 5.45027e-14 0)
(5.70707 6.49579e-14 0)
(5.70707 4.31908e-14 0)
(5.70707 2.15937e-14 0)
(5.70707 2.40942e-14 0)
(5.70707 3.33991e-14 0)
(5.70707 5.10221e-14 0)
(5.70707 2.24472e-14 0)
(5.70707 1.12153e-14 0)
(5.70707 4.68748e-15 0)
(5.70707 1.67762e-14 0)
(5.70707 4.10638e-14 0)
(5.70707 3.05319e-14 0)
(5.70707 1.14053e-14 0)
(5.70707 5.54462e-14 0)
(5.70707 7.45795e-14 0)
(5.70707 1.29256e-13 0)
(5.70707 1.07792e-13 0)
(5.70707 8.81652e-14 0)
(5.70707 6.31042e-14 0)
(5.70707 5.20423e-15 0)
(5.70707 4.17672e-14 0)
(5.70707 -1.61328e-14 0)
(5.70707 -3.86267e-14 0)
(5.70707 -2.17304e-14 0)
(5.70707 -1.42058e-14 0)
(5.70707 -1.77331e-14 0)
(5.70707 -1.45725e-14 0)
(5.70707 4.15772e-14 0)
(5.70707 1.19391e-13 0)
(5.70707 7.1418e-14 0)
(5.70707 2.56711e-15 0)
(5.70707 -5.58763e-15 0)
(5.70707 -5.12088e-15 0)
(5.70707 4.13738e-15 0)
(5.70707 2.71547e-14 0)
(5.70707 3.24189e-14 0)
(5.70707 4.54045e-14 0)
(5.70707 5.72699e-14 0)
(5.70707 5.75899e-14 0)
(5.70707 1.08082e-13 0)
(5.70707 1.11159e-13 0)
(5.70707 9.22326e-14 0)
(5.70707 9.82136e-14 0)
(5.70707 5.48428e-14 0)
(5.70707 -9.4683e-16 0)
(5.70707 4.15205e-14 0)
(5.70707 6.83518e-14 0)
(5.70707 1.06168e-13 0)
(5.70707 9.21092e-14 0)
(5.70707 7.05388e-14 0)
(5.70707 -3.4706e-15 0)
(5.70707 -6.85285e-14 0)
(5.70707 -4.4221e-14 0)
(5.70707 -2.7268e-14 0)
(5.70707 2.36708e-16 0)
(5.70707 -1.10086e-14 0)
(5.70707 -6.71149e-14 0)
(5.70707 -8.96988e-14 0)
(5.70707 -8.71284e-14 0)
(5.70707 -1.06072e-13 0)
(5.70707 -1.5169e-13 0)
(5.70707 -1.67896e-14 0)
(5.70707 3.94601e-14 0)
(5.70707 6.3611e-14 0)
(5.70707 7.96804e-14 0)
(5.70707 1.51426e-13 0)
(5.70707 1.85405e-13 0)
(5.70707 1.88553e-13 0)
(5.70707 1.00181e-13 0)
(5.70707 5.94197e-14 0)
(5.70707 -7.39128e-15 0)
(5.70707 5.58763e-15 0)
(5.70707 7.81468e-15 0)
(5.70707 -1.87932e-14 0)
(5.70707 -8.43546e-14 0)
(5.70707 -1.13733e-13 0)
(5.70707 -1.02471e-13 0)
(5.70707 -1.19574e-13 0)
(5.70707 -1.28802e-13 0)
(5.70707 -9.95105e-14 0)
(5.70707 -2.92717e-15 0)
(5.70707 1.13066e-13 0)
(5.70707 1.06868e-13 0)
(5.70707 5.71565e-14 0)
(5.70707 1.55894e-14 0)
(5.70707 8.26143e-15 0)
(5.70707 2.00068e-14 0)
(5.70707 2.19371e-15 0)
(5.70707 -5.77433e-15 0)
(5.70707 -3.93335e-14 0)
(5.70707 -5.69398e-14 0)
(5.70707 -4.48477e-14 0)
(5.70707 -3.6823e-14 0)
(5.70707 -9.4463e-14 0)
(5.70707 -1.22951e-13 0)
(5.70707 -1.42928e-13 0)
(5.70707 -1.02881e-13 0)
(5.70707 -5.6033e-14 0)
(5.70707 -7.82969e-14 0)
(5.70707 -1.40294e-13 0)
(5.70707 -1.43125e-13 0)
(5.70707 1.69029e-15 0)
(5.70707 3.01352e-14 0)
(5.70707 -2.16371e-15 0)
(5.70707 4.78383e-14 0)
(5.70707 1.31719e-13 0)
(5.70707 1.35743e-13 0)
(5.70707 1.37097e-13 0)
(5.70707 4.68581e-14 0)
(5.70707 -8.21205e-14 0)
(5.70707 -3.97735e-15 0)
(5.70707 -1.928e-14 0)
(5.70707 -3.47227e-14 0)
(5.70707 -6.68082e-14 0)
(5.70707 -9.627e-14 0)
(5.70707 -9.94772e-14 0)
(5.70707 -1.3592e-13 0)
(5.70707 -1.32716e-13 0)
(5.70707 -9.4593e-14 0)
(5.70707 -5.44961e-14 0)
(5.70707 1.52826e-14 0)
(5.70707 3.79132e-14 0)
(5.70707 3.22856e-14 0)
(5.70707 2.02702e-15 0)
(5.70707 -7.41095e-14 0)
(5.70707 -1.15303e-13 0)
(5.70707 -9.51198e-14 0)
(5.70707 -2.59045e-14 0)
(5.70707 1.98201e-14 0)
(5.70707 1.83565e-14 0)
(5.70707 -8.52814e-15 0)
(5.70707 -3.92268e-14 0)
(5.70707 -6.7645e-14 0)
(5.70707 -7.28459e-14 0)
(5.70707 -7.51963e-14 0)
(5.70707 -3.12187e-14 0)
(5.70707 4.98686e-14 0)
(5.70707 8.26176e-14 0)
(5.70707 3.00285e-14 0)
(5.70707 3.08053e-15 0)
(5.70707 1.09419e-14 0)
(5.70707 1.79264e-14 0)
(5.70707 1.21688e-15 0)
(5.70707 -1.67296e-14 0)
(5.70707 -2.27806e-14 0)
(5.70707 4.56412e-14 0)
(5.70707 5.75366e-14 0)
(5.70707 3.42592e-14 0)
(5.70707 1.28322e-14 0)
(5.70707 -7.16736e-14 0)
(5.70707 1.93333e-14 0)
(5.70707 6.05104e-15 0)
(5.70707 -7.10123e-15 0)
(5.70707 9.05156e-15 0)
(5.70707 2.85916e-14 0)
(5.70707 3.50527e-14 0)
(5.70707 1.11286e-14 0)
(5.70707 -5.60097e-15 0)
(5.70707 1.46325e-14 0)
(5.70707 1.46825e-14 0)
(5.70707 -8.15741e-14 0)
(5.70707 -1.06145e-13 0)
(5.70707 -8.45746e-14 0)
(5.70707 -8.49613e-14 0)
(5.70707 -1.1816e-13 0)
(5.70707 -1.12799e-13 0)
(5.70707 -1.27429e-13 0)
(5.70707 -9.61399e-14 0)
(5.70707 -7.09689e-14 0)
(5.70707 -5.42294e-14 0)
(5.70707 -1.1325e-13 0)
(5.70707 -1.48772e-13 0)
(5.70707 -1.1777e-13 0)
(5.70707 -6.30776e-14 0)
(5.70707 -5.30325e-14 0)
(5.70707 -1.61761e-14 0)
(5.70707 -3.31491e-14 0)
(5.70707 -4.74115e-14 0)
(5.70707 2.29573e-14 0)
(5.70707 8.93154e-14 0)
(5.70707 7.51863e-14 0)
(5.70707 -2.73381e-16 0)
(5.70707 -6.5378e-15 0)
(5.70707 -1.83665e-14 0)
(5.70707 -4.40143e-14 0)
(5.70707 -7.53497e-14 0)
(5.70707 -8.58615e-14 0)
(5.70707 -1.06732e-13 0)
(5.70707 -3.91901e-14 0)
(5.70707 -5.00555e-14 0)
(5.70707 3.39725e-15 0)
(5.70707 2.65846e-14 0)
(5.70707 6.51946e-14 0)
(5.70707 9.19826e-14 0)
(5.70707 9.24726e-14 0)
(5.70707 1.23441e-13 0)
(5.70707 1.7133e-13 0)
(5.70707 1.58911e-13 0)
(5.70707 1.06135e-13 0)
(5.70707 -2.64046e-15 0)
(5.70707 -6.11272e-14 0)
(5.70707 -1.16417e-13 0)
(5.70707 -1.04208e-13 0)
(5.70707 -6.41944e-14 0)
(5.70707 6.82284e-14 0)
(5.70707 1.12416e-13 0)
(5.70707 1.09449e-13 0)
(5.70707 -2.6788e-14 0)
(5.70707 -6.86819e-14 0)
(5.70707 -7.79201e-14 0)
(5.70707 -1.55093e-14 0)
(5.70707 3.19755e-14 0)
(5.70707 3.07253e-14 0)
(5.70707 5.73532e-14 0)
(5.70707 3.40092e-14 0)
(5.70707 -1.63362e-16 0)
(5.70707 -1.93067e-14 0)
(5.70707 -1.17387e-14 0)
(5.70707 7.24125e-14 0)
(5.70707 1.59791e-13 0)
(5.70707 1.38024e-13 0)
(5.70707 1.19031e-13 0)
(5.70707 6.89852e-14 0)
(5.70707 -3.72331e-14 0)
(5.70707 -1.57444e-13 0)
(5.70707 -1.59424e-13 0)
(5.70707 -1.48679e-13 0)
(5.70707 -7.86703e-14 0)
(5.70707 -4.69148e-14 0)
(5.70707 -7.42479e-14 0)
(5.70707 -7.22791e-15 0)
(5.70707 1.96767e-14 0)
(5.70707 3.28423e-14 0)
(5.70707 4.65414e-14 0)
(5.70707 4.94819e-14 0)
(5.70707 3.93901e-14 0)
(5.70707 5.9897e-14 0)
(5.70707 6.94953e-14 0)
(5.70707 6.2054e-14 0)
(5.70707 7.26792e-15 0)
(5.70707 1.7303e-14 0)
(5.70707 2.96318e-14 0)
(5.70707 3.95568e-14 0)
(5.70707 7.59998e-14 0)
(5.70707 1.70559e-13 0)
(5.70707 2.102e-13 0)
(5.70707 1.80738e-13 0)
(5.70707 1.30229e-13 0)
(5.70707 8.53681e-14 0)
(5.70707 1.63228e-13 0)
(5.70707 1.28816e-13 0)
(5.70707 1.03815e-13 0)
(5.70707 7.11223e-14 0)
(5.70707 6.01937e-14 0)
(5.70707 6.03504e-14 0)
(5.70707 4.06237e-14 0)
(5.70707 5.04787e-14 0)
(5.70707 5.35993e-14 0)
(5.70707 6.80518e-14 0)
(5.70707 1.06818e-13 0)
(5.70707 1.43371e-13 0)
(5.70707 1.33926e-13 0)
(5.70707 3.35825e-14 0)
(5.70707 -7.3296e-14 0)
(5.70707 -1.36574e-13 0)
(5.70707 -1.64842e-13 0)
(5.70707 -1.50626e-13 0)
(5.70707 -1.3262e-13 0)
(5.70707 -1.3716e-13 0)
(5.70707 -1.79029e-13 0)
(5.70707 -2.61045e-15 0)
(5.70707 -1.60894e-14 0)
(5.70707 -1.76397e-14 0)
(5.70707 -3.73398e-15 0)
(5.70707 3.52294e-14 0)
(5.70707 1.40058e-14 0)
(5.70707 -2.92551e-14 0)
(5.70707 -4.01803e-14 0)
(5.70707 -3.28057e-14 0)
(5.70707 2.3074e-14 0)
(5.70707 8.86253e-14 0)
(5.70707 1.01451e-13 0)
(5.70707 1.37407e-13 0)
(5.70707 1.99928e-13 0)
(5.70707 1.55874e-13 0)
(5.70707 1.02231e-13 0)
(5.70707 8.40045e-14 0)
(5.70707 1.07585e-13 0)
(5.70707 1.60231e-13 0)
(5.70707 1.66912e-13 0)
(5.70707 1.3306e-13 0)
(5.70707 6.85652e-14 0)
(5.70707 1.47025e-14 0)
(5.70707 5.32425e-15 0)
(5.70707 1.28055e-14 0)
(5.70707 -2.21938e-14 0)
(5.70707 9.18492e-15 0)
(5.70707 3.01919e-14 0)
(5.70707 4.01003e-14 0)
(5.70707 4.59446e-14 0)
(5.70707 3.16188e-14 0)
(5.70707 -1.94067e-14 0)
(5.70707 4.56746e-16 0)
(5.70707 5.66765e-15 0)
(5.70707 2.20205e-14 0)
(5.70707 -2.0977e-14 0)
(5.70707 -2.61612e-14 0)
(5.70707 -3.2929e-14 0)
(5.70707 -1.05272e-13 0)
(5.70707 -1.51133e-13 0)
(5.70707 -9.46163e-15 0)
(5.70707 -1.24655e-14 0)
(5.70707 -8.84819e-15 0)
(5.70707 -2.00935e-14 0)
(5.70707 -2.03568e-14 0)
(5.70707 -7.90136e-16 0)
(5.70707 -1.29022e-14 0)
(5.70707 -1.18354e-14 0)
(5.70707 -1.85032e-15 0)
(5.70707 4.6078e-14 0)
(5.70707 1.04301e-13 0)
(5.70707 1.23281e-13 0)
(5.70707 1.03745e-13 0)
(5.70707 7.91437e-14 0)
(5.70707 1.45892e-14 0)
(5.70707 -2.48043e-15 0)
(5.70707 3.70164e-14 0)
(5.70707 7.83135e-14 0)
(5.70707 8.34044e-14 0)
(5.70707 5.2009e-14 0)
(5.70707 5.46028e-14 0)
(5.70707 6.59781e-14 0)
(5.70707 2.7308e-14 0)
(5.70707 -5.38393e-14 0)
(5.70707 -5.43894e-14 0)
(5.70707 -4.93485e-14 0)
(5.70707 -2.80082e-14 0)
(5.70707 -2.59578e-14 0)
(5.70707 -6.05471e-14 0)
(5.70707 -1.11499e-13 0)
(5.70707 -9.51031e-14 0)
(5.70707 -7.11923e-14 0)
(5.70707 -3.06953e-14 0)
(5.70707 4.13405e-14 0)
(5.70707 8.40112e-14 0)
(5.70707 8.71317e-14 0)
(5.70707 6.68882e-14 0)
(5.70707 5.38193e-14 0)
(5.70707 3.97702e-14 0)
(5.70707 6.49739e-15 0)
(5.70707 -2.3004e-16 0)
(5.70707 1.27189e-14 0)
(5.70707 8.28143e-15 0)
(5.70707 -2.3284e-14 0)
(5.70707 -5.49362e-14 0)
(5.70707 -1.33923e-14 0)
(5.70707 5.809e-14 0)
(5.70707 8.10007e-14 0)
(5.70707 8.24242e-14 0)
(5.70707 5.68465e-14 0)
(5.70707 2.45576e-14 0)
(5.70707 1.44992e-14 0)
(5.70707 4.35742e-14 0)
(5.70707 6.72449e-15 0)
(5.70707 -3.36992e-14 0)
(5.70707 -1.59628e-14 0)
(5.70707 3.6433e-14 0)
(5.70707 6.41211e-14 0)
(5.70707 4.47744e-15 0)
(5.70707 -4.48511e-14 0)
(5.70707 -5.19656e-14 0)
(5.70707 -7.43495e-14 0)
(5.70707 -8.25843e-14 0)
(5.70707 -7.32793e-14 0)
(5.70707 -6.46978e-14 0)
(5.70707 -6.07772e-14 0)
(5.70707 -7.07622e-14 0)
(5.70707 -3.74965e-14 0)
(5.70707 1.15287e-14 0)
(5.70707 1.16954e-14 0)
(5.70707 1.66229e-14 0)
(5.70707 1.19154e-14 0)
(5.70707 -3.94201e-14 0)
(5.70707 -5.27324e-14 0)
(5.70707 -3.57128e-14 0)
(5.70707 -2.74981e-14 0)
(5.70707 5.54762e-15 0)
(5.70707 5.26391e-14 0)
(5.70707 7.08522e-14 0)
(5.70707 6.22788e-14 0)
(5.70707 4.94085e-15 0)
(5.70707 -1.25588e-14 0)
(5.70707 -9.49497e-15 0)
(5.70707 7.48129e-15 0)
(5.70707 4.38209e-14 0)
(5.70707 7.22425e-14 0)
(5.70707 8.80585e-14 0)
(5.70707 6.38677e-14 0)
(5.70707 4.77049e-14 0)
(5.70707 6.5918e-14 0)
(5.70707 7.97204e-14 0)
(5.70707 3.01819e-14 0)
(5.70707 1.49292e-14 0)
(5.70707 2.58978e-14 0)
(5.70707 5.78533e-14 0)
(5.70707 7.52963e-14 0)
(5.70707 7.22892e-14 0)
(5.70707 4.55412e-15 0)
(5.70707 -2.24039e-15 0)
(5.70707 -1.27789e-14 0)
(5.70707 -3.42392e-15 0)
(5.70707 -6.48112e-15 0)
(5.70707 1.32089e-14 0)
(5.70707 5.86468e-14 0)
(5.70707 7.86102e-14 0)
(5.70707 7.55931e-14 0)
(5.70707 1.98801e-14 0)
(5.70707 2.03902e-14 0)
(5.70707 3.16688e-14 0)
(5.70707 -3.93068e-15 0)
(5.70707 -1.67162e-14 0)
(5.70707 -2.49943e-14 0)
(5.70707 -3.02219e-14 0)
(5.70707 -2.48843e-14 0)
(5.70707 -6.91453e-15 0)
(5.70707 -4.54412e-15 0)
(5.70707 -2.6998e-14 0)
(5.70707 -1.31056e-14 0)
(5.70707 4.91952e-14 0)
(5.70707 1.21284e-13 0)
(5.70707 -8.0814e-15 0)
(5.70707 -1.7183e-14 0)
(5.70707 -1.99701e-14 0)
(5.70707 -2.11136e-14 0)
(5.70707 8.77818e-15 0)
(5.70707 3.28923e-14 0)
(5.70707 3.38925e-14 0)
(5.70707 3.26056e-14 0)
(5.70707 3.80666e-14 0)
(5.70707 2.3034e-14 0)
(5.70707 7.00454e-15 0)
(5.70707 1.30022e-16 0)
(5.70707 3.07053e-15 0)
(5.70707 8.53481e-15 0)
(5.70707 7.11556e-14 0)
(5.70707 6.53946e-14 0)
(5.70707 6.42844e-14 0)
(5.70707 5.77166e-14 0)
(5.70707 6.02371e-14 0)
(5.70707 1.06145e-13 0)
(5.70707 8.95455e-14 0)
(5.70707 1.29169e-13 0)
(5.70707 7.95204e-14 0)
(5.70707 3.39492e-14 0)
(5.70707 3.32424e-14 0)
(5.70707 6.13406e-14 0)
(5.70707 1.66829e-14 0)
(5.70707 -2.42842e-14 0)
(5.70707 -5.71865e-14 0)
(5.70707 -1.39194e-13 0)
(5.70707 -1.7245e-13 0)
(5.70707 -1.46635e-13 0)
(5.70707 -4.66347e-14 0)
(5.70707 3.31991e-14 0)
(5.70707 5.90302e-14 0)
(5.70707 6.55847e-14 0)
(5.70707 2.37708e-14 0)
(5.70707 8.14141e-15 0)
(5.70707 3.78132e-14 0)
(5.70707 1.10164e-13 0)
(5.70707 -3.90734e-15 0)
(5.70707 7.29459e-15 0)
(5.70707 -3.18055e-15 0)
(5.70707 -3.82333e-14 0)
(5.70707 -4.49678e-14 0)
(5.70707 -4.89551e-14 0)
(5.70707 -6.33309e-14 0)
(5.70707 -5.53829e-14 0)
(5.70707 -3.41926e-14 0)
(5.70707 -2.99852e-14 0)
(5.70707 -6.17907e-14 0)
(5.70707 -3.74798e-14 0)
(5.70707 -5.65098e-15 0)
(5.70707 -2.94618e-14 0)
(5.70707 -3.93868e-14 0)
(5.70707 -3.40225e-14 0)
(5.70707 -2.37374e-14 0)
(5.70707 -1.04085e-14 0)
(5.70707 1.65028e-14 0)
(5.70707 3.82166e-14 0)
(5.70707 -4.69414e-15 0)
(5.70707 -3.29524e-14 0)
(5.70707 -5.04987e-14 0)
(5.70707 -9.62966e-14 0)
(5.70707 -1.06642e-13 0)
(5.70707 -7.45895e-14 0)
(5.70707 -4.78449e-14 0)
(5.70707 1.10252e-14 0)
(5.70707 1.48059e-14 0)
(5.70707 -2.8735e-14 0)
(5.70707 -8.50247e-14 0)
(5.70707 -5.94436e-14 0)
(5.70707 -1.58327e-14 0)
(5.70707 1.3469e-14 0)
(5.70707 2.1127e-14 0)
(5.70707 5.2359e-14 0)
(5.70707 5.96903e-14 0)
(5.70707 3.84333e-14 0)
(5.70707 4.4181e-14 0)
(5.70707 1.00987e-13 0)
(5.70707 8.18141e-15 0)
(5.70707 2.00935e-14 0)
(5.70707 4.63447e-14 0)
(5.70707 4.22906e-14 0)
(5.70707 3.74865e-14 0)
(5.70707 7.67799e-15 0)
(5.70707 -2.5251e-14 0)
(5.70707 -5.86201e-14 0)
(5.70707 -7.15324e-14 0)
(5.70707 -5.09988e-14 0)
(5.70707 -1.87732e-14 0)
(5.70707 3.84633e-14 0)
(5.70707 3.07653e-14 0)
(5.70707 -1.60328e-14 0)
(5.70707 -1.20794e-13 0)
(5.70707 -1.53033e-13 0)
(5.70707 -1.54417e-13 0)
(5.70707 -1.33433e-13 0)
(5.70707 -1.32133e-13 0)
(5.70707 -1.11579e-13 0)
(5.70707 -9.17792e-14 0)
(5.70707 -1.1296e-13 0)
(5.70707 -1.16607e-13 0)
(5.70707 -1.01654e-13 0)
(5.70707 -5.96636e-14 0)
(5.70707 -3.36025e-14 0)
(5.70707 4.11738e-15 0)
(5.70707 3.26556e-14 0)
(5.70707 4.10404e-14 0)
(5.70707 9.97172e-15 0)
(5.70707 3.76398e-15 0)
(5.70707 2.10703e-14 0)
(5.70707 2.61445e-14 0)
(5.70707 3.06453e-14 0)
(5.70707 2.76481e-14 0)
(5.70707 6.70049e-14 0)
(5.70707 1.1744e-13 0)
(5.70707 1.07622e-13 0)
(5.70707 1.11786e-13 0)
(5.70707 1.45852e-13 0)
(5.70707 1.45692e-15 0)
(5.70707 8.04472e-15 0)
(5.70707 5.73432e-15 0)
(5.70707 1.03985e-14 0)
(5.70707 2.03368e-14 0)
(5.70707 1.03285e-14 0)
(5.70707 5.56096e-15 0)
(5.70707 -5.82767e-15 0)
(5.70707 -1.78031e-14 0)
(5.70707 -9.94172e-15 0)
(5.70707 4.13605e-14 0)
(5.70707 6.25941e-14 0)
(5.70707 1.40324e-14 0)
(5.70707 -5.52529e-14 0)
(5.70707 -1.27732e-13 0)
(5.70707 -1.48269e-13 0)
(5.70707 -1.26062e-13 0)
(5.70707 -1.33923e-13 0)
(5.70707 -9.94705e-14 0)
(5.70707 -1.03671e-13 0)
(5.70707 -8.14274e-14 0)
(5.70707 -6.84352e-14 0)
(5.70707 -3.858e-14 0)
(5.70707 1.65629e-14 0)
(5.70707 8.45413e-14 0)
(5.70707 5.55029e-14 0)
(5.70707 1.59361e-14 0)
(5.70707 -1.60628e-14 0)
(5.70707 1.86032e-14 0)
(5.70707 3.96135e-14 0)
(5.70707 7.45629e-14 0)
(5.70707 6.62981e-14 0)
(5.70707 6.31676e-14 0)
(5.70707 8.25109e-14 0)
(5.70707 1.12633e-13 0)
(5.70707 1.30126e-13 0)
(5.70707 1.60551e-13 0)
(5.70707 1.52176e-13 0)
(5.70707 1.76644e-13 0)
(5.70707 2.0916e-13 0)
(5.70707 -3.29724e-15 0)
(5.70707 -4.71081e-15 0)
(5.70707 8.35144e-15 0)
(5.70707 1.97001e-14 0)
(5.70707 -4.51311e-14 0)
(5.70707 -7.52063e-14 0)
(5.70707 -9.26527e-14 0)
(5.70707 -7.83035e-14 0)
(5.70707 -6.70449e-14 0)
(5.70707 -3.68597e-14 0)
(5.70707 -3.05353e-14 0)
(5.70707 -4.30608e-14 0)
(5.70707 -4.69148e-14 0)
(5.70707 -1.62195e-14 0)
(5.70707 1.35857e-14 0)
(5.70707 1.31856e-14 0)
(5.70707 -5.23757e-15 0)
(5.70707 -5.95236e-14 0)
(5.70707 -8.62182e-14 0)
(5.70707 -9.75535e-14 0)
(5.70707 -1.09226e-13 0)
(5.70707 -1.22751e-13 0)
(5.70707 -8.99522e-14 0)
(5.70707 -6.17573e-14 0)
(5.70707 -7.95804e-15 0)
(5.70707 4.80783e-14 0)
(5.70707 4.55812e-14 0)
(5.70707 5.0142e-14 0)
(5.70707 6.04971e-14 0)
(5.70707 7.69033e-14 0)
(5.70707 1.09522e-13 0)
(5.70707 1.10079e-13 0)
(5.70707 1.32073e-13 0)
(5.70707 1.38641e-13 0)
(5.70707 1.02951e-13 0)
(5.70707 6.27442e-14 0)
(5.70707 3.56262e-14 0)
(5.70707 1.16597e-13 0)
(5.70707 1.61238e-13 0)
(5.70707 1.58979e-13 0)
(5.70707 1.40658e-14 0)
(5.70707 7.65466e-15 0)
(5.70707 1.37724e-14 0)
(5.70707 -1.42258e-14 0)
(5.70707 -2.85349e-14 0)
(5.70707 -2.61345e-14 0)
(5.70707 -2.85049e-15 0)
(5.70707 -7.85469e-15 0)
(5.70707 -6.23108e-15 0)
(5.70707 -1.08352e-15 0)
(5.70707 -1.76731e-14 0)
(5.70707 -2.00835e-14 0)
(5.70707 -1.91033e-14 0)
(5.70707 2.12437e-14 0)
(5.70707 7.10356e-14 0)
(5.70707 7.48996e-14 0)
(5.70707 3.36791e-14 0)
(5.70707 2.62212e-14 0)
(5.70707 -4.33542e-14 0)
(5.70707 -6.24641e-14 0)
(5.70707 -5.21357e-14 0)
(5.70707 1.24755e-14 0)
(5.70707 -2.00035e-17 0)
(5.70707 -3.70731e-15 0)
(5.70707 3.59395e-15 0)
(5.70707 2.08836e-14 0)
(5.70707 4.8035e-14 0)
(5.70707 6.23008e-14 0)
(5.70707 6.09172e-14 0)
(5.70707 1.41361e-13 0)
(5.70707 1.84989e-13 0)
(5.70707 1.69156e-13 0)
(5.70707 1.80561e-13 0)
(5.70707 1.58111e-13 0)
(5.70707 8.3041e-14 0)
(5.70707 5.47928e-14 0)
(5.70707 1.06248e-13 0)
(5.70707 2.20941e-13 0)
(5.70707 2.47639e-13 0)
(5.70707 2.4188e-13 0)
(5.70707 9.33495e-16 0)
(5.70707 -4.0307e-15 0)
(5.70707 -6.80984e-14 0)
(5.70707 -1.05918e-13 0)
(5.70707 -7.1409e-14 0)
(5.70707 -1.76197e-14 0)
(5.70707 -1.85699e-15 0)
(5.70707 1.30056e-14 0)
(5.70707 7.48863e-14 0)
(5.70707 5.83934e-14 0)
(5.70707 4.17872e-14 0)
(5.70707 -3.42192e-14 0)
(5.70707 -6.76884e-14 0)
(5.70707 -8.13774e-14 0)
(5.70707 -5.71299e-14 0)
(5.70707 -5.28291e-14 0)
(5.70707 -7.94504e-14 0)
(5.70707 -5.37093e-14 0)
(5.70707 -3.82899e-14 0)
(5.70707 -8.92221e-14 0)
(5.70707 -6.02471e-14 0)
(5.70707 9.56132e-14 0)
(5.70707 1.5191e-13 0)
(5.70707 1.65699e-13 0)
(5.70707 1.40578e-13 0)
(5.70707 8.67516e-14 0)
(5.70707 7.69199e-14 0)
(5.70707 4.04837e-14 0)
(5.70707 3.30657e-14 0)
(5.70707 7.86569e-14 0)
(5.70707 7.39261e-14 0)
(5.70707 9.677e-14 0)
(5.70707 1.16867e-13 0)
(5.70707 8.91987e-14 0)
(5.70707 1.11656e-13 0)
(5.70707 1.22401e-13 0)
(5.70707 1.45215e-13 0)
(5.70707 1.7408e-13 0)
(5.70707 1.30736e-13 0)
(5.70707 9.30974e-14 0)
(5.70707 -5.67098e-15 0)
(5.70707 -1.50293e-14 0)
(5.70707 -2.27539e-14 0)
(5.70707 -1.39524e-14 0)
(5.70707 -1.60128e-14 0)
(5.70707 -1.7583e-14 0)
(5.70707 -6.52346e-14 0)
(5.70707 -1.09419e-13 0)
(5.70707 -7.82268e-14 0)
(5.70707 -2.73347e-14 0)
(5.70707 -5.04087e-15 0)
(5.70707 -1.29122e-14 0)
(5.70707 -4.11704e-14 0)
(5.70707 -2.56178e-14 0)
(5.70707 -1.87466e-14 0)
(5.70707 -5.16789e-14 0)
(5.70707 -8.44779e-14 0)
(5.70707 -8.41545e-14 0)
(5.70707 7.40128e-15 0)
(5.70707 4.79616e-14 0)
(5.70707 5.2059e-14 0)
(5.70707 4.22106e-14 0)
(5.70707 2.59545e-14 0)
(5.70707 2.19405e-14 0)
(5.70707 1.5376e-14 0)
(5.70707 7.69166e-14 0)
(5.70707 9.30661e-14 0)
(5.70707 7.51196e-14 0)
(5.70707 7.42828e-14 0)
(5.70707 3.13021e-14 0)
(5.70707 2.29006e-14 0)
(5.70707 2.66779e-14 0)
(5.70707 -2.6828e-14 0)
(5.70707 -7.23958e-14 0)
(5.70707 -6.59847e-14 0)
(5.70707 -2.34007e-14 0)
(5.70707 -1.86132e-14 0)
(5.70707 -4.76049e-14 0)
(5.70707 -1.3668e-13 0)
(5.70707 -2.5088e-13 0)
(5.70707 -4.68414e-15 0)
(5.70707 1.24688e-14 0)
(5.70707 6.49512e-14 0)
(5.70707 8.92321e-14 0)
(5.70707 8.92087e-14 0)
(5.70707 9.54865e-14 0)
(5.70707 6.1494e-14 0)
(5.70707 -2.64712e-14 0)
(5.70707 -4.73382e-14 0)
(5.70707 -6.64781e-15 0)
(5.70707 4.98419e-14 0)
(5.70707 8.25176e-14 0)
(5.70707 1.11133e-13 0)
(5.70707 1.17484e-13 0)
(5.70707 1.29122e-14 0)
(5.70707 -1.76197e-14 0)
(5.70707 1.01151e-14 0)
(5.70707 2.22372e-15 0)
(5.70707 3.19055e-14 0)
(5.70707 7.746e-14 0)
(5.70707 9.78302e-14 0)
(5.70707 9.37195e-14 0)
(5.70707 -5.84634e-14 0)
(5.70707 -1.08649e-13 0)
(5.70707 -9.31628e-14 0)
(5.70707 -7.77868e-14 0)
(5.70707 -9.43196e-14 0)
(5.70707 -1.21848e-13 0)
(5.70707 -1.05131e-13 0)
(5.70707 -6.34476e-14 0)
(5.70707 -1.84198e-14 0)
(5.70707 -4.75782e-14 0)
(5.70707 -1.38081e-13 0)
(5.70707 -1.46532e-13 0)
(5.70707 -1.41758e-13 0)
(5.70707 -1.09162e-13 0)
(5.70707 -1.23641e-13 0)
(5.70707 -1.51643e-13 0)
(5.70707 -2.00188e-13 0)
(5.70707 -1.57834e-13 0)
(5.70707 -5.2209e-15 0)
(5.70707 6.17773e-15 0)
(5.70707 4.45544e-14 0)
(5.70707 6.46378e-14 0)
(5.70707 7.29159e-14 0)
(5.70707 1.01861e-13 0)
(5.70707 1.27925e-13 0)
(5.70707 1.38721e-13 0)
(5.70707 1.15513e-13 0)
(5.70707 6.76684e-14 0)
(5.70707 2.01168e-14 0)
(5.70707 2.01568e-14 0)
(5.70707 1.937e-14 0)
(5.70707 -1.73797e-14 0)
(5.70707 -4.2394e-14 0)
(5.70707 -2.23705e-14 0)
(5.70707 1.95034e-15 0)
(5.70707 5.18089e-15 0)
(5.70707 -1.03301e-13 0)
(5.70707 -1.12406e-13 0)
(5.70707 -1.08902e-13 0)
(5.70707 -8.65249e-14 0)
(5.70707 -4.01303e-14 0)
(5.70707 8.24142e-15 0)
(5.70707 2.57144e-14 0)
(5.70707 -6.59581e-14 0)
(5.70707 -1.38391e-14 0)
(5.70707 2.81815e-14 0)
(5.70707 4.82783e-14 0)
(5.70707 3.29924e-14 0)
(5.70707 -3.49394e-15 0)
(5.70707 -2.24039e-14 0)
(5.70707 7.8947e-15 0)
(5.70707 6.40111e-15 0)
(5.70707 1.31989e-14 0)
(5.70707 1.42058e-14 0)
(5.70707 -5.31325e-14 0)
(5.70707 -9.0699e-14 0)
(5.70707 -1.08479e-13 0)
(5.70707 5.19821e-14 0)
(5.70707 -6.47445e-15 0)
(5.70707 -9.8617e-15 0)
(5.70707 -1.30689e-15 0)
(5.70707 -5.61097e-15 0)
(5.70707 -2.68146e-14 0)
(5.70707 -3.78365e-14 0)
(5.70707 2.36141e-14 0)
(5.70707 3.10987e-14 0)
(5.70707 9.47164e-15 0)
(5.70707 -2.05702e-14 0)
(5.70707 -1.04728e-13 0)
(5.70707 -1.5212e-13 0)
(5.70707 -1.42411e-13 0)
(5.70707 -1.08895e-13 0)
(5.70707 -1.24021e-14 0)
(5.70707 -5.88768e-15 0)
(5.70707 -2.96718e-14 0)
(5.70707 -6.29142e-14 0)
(5.70707 -5.85601e-14 0)
(5.70707 -4.59479e-14 0)
(5.70707 -6.15373e-14 0)
(5.70707 -7.14257e-14 0)
(5.70707 -1.75664e-14 0)
(5.70707 3.08553e-14 0)
(5.70707 5.77966e-14 0)
(5.70707 4.70081e-16 0)
(5.70707 -3.04586e-14 0)
(5.70707 1.90533e-14 0)
(5.70707 5.78467e-14 0)
(5.70707 5.27124e-14 0)
(5.70707 2.76514e-14 0)
(5.70707 1.74163e-14 0)
(5.70707 4.73248e-14 0)
(5.70707 1.10282e-13 0)
(5.70707 1.39194e-13 0)
(5.70707 6.18107e-14 0)
(5.70707 -1.31723e-14 0)
(5.70707 -6.88019e-14 0)
(5.70707 -6.34376e-14 0)
(5.70707 5.01731e-14 0)
(5.70707 -7.60131e-16 0)
(5.70707 1.27355e-15 0)
(5.70707 -1.20254e-14 0)
(5.70707 -4.34708e-14 0)
(5.70707 -1.04841e-13 0)
(5.70707 -1.15977e-13 0)
(5.70707 -1.23981e-13 0)
(5.70707 -1.28409e-13 0)
(5.70707 -1.60051e-13 0)
(5.70707 -1.5456e-13 0)
(5.70707 -1.30466e-13 0)
(5.70707 -1.31386e-13 0)
(5.70707 -1.24945e-13 0)
(5.70707 -9.45063e-14 0)
(5.70707 -6.84218e-14 0)
(5.70707 -3.76098e-14 0)
(5.70707 -3.02919e-14 0)
(5.70707 -3.23989e-14 0)
(5.70707 -3.873e-14 0)
(5.70707 -8.1234e-14 0)
(5.70707 -6.19474e-14 0)
(5.70707 -3.59262e-14 0)
(5.70707 1.84732e-14 0)
(5.70707 -1.98401e-14 0)
(5.70707 -8.48913e-14 0)
(5.70707 -8.04239e-14 0)
(5.70707 -6.17407e-14 0)
(5.70707 2.20905e-14 0)
(5.70707 4.00269e-14 0)
(5.70707 5.65864e-14 0)
(5.70707 3.75065e-15 0)
(5.70707 -2.67413e-14 0)
(5.70707 -8.09606e-14 0)
(5.70707 -5.16689e-14 0)
(5.70707 1.43725e-14 0)
(5.70707 5.65764e-15 0)
(5.70707 -9.66834e-17 0)
(5.70707 5.93436e-15 0)
(5.70707 1.30423e-14 0)
(5.70707 1.60655e-14 0)
(5.70707 -3.87734e-15 0)
(5.70707 -1.48826e-14 0)
(5.70707 -4.26007e-14 0)
(5.70707 -6.06271e-14 0)
(5.70707 -6.36743e-14 0)
(5.70707 -6.37677e-14 0)
(5.70707 -1.02148e-13 0)
(5.70707 -1.27785e-13 0)
(5.70707 -1.53056e-13 0)
(5.70707 -1.44178e-13 0)
(5.70707 -6.84985e-14 0)
(5.70707 -6.03304e-14 0)
(5.70707 -4.95719e-14 0)
(5.70707 -5.35559e-14 0)
(5.70707 -4.21106e-14 0)
(5.70707 2.3284e-14 0)
(5.70707 7.03788e-15 0)
(5.70707 2.66713e-17 0)
(5.70707 3.60396e-15 0)
(5.70707 -5.806e-14 0)
(5.70707 -9.58132e-14 0)
(5.70707 -8.99255e-14 0)
(5.70707 -4.48111e-14 0)
(5.70707 -7.68833e-14 0)
(5.70707 -2.17331e-13 0)
(5.70707 -2.34831e-13 0)
(5.70707 -2.21942e-13 0)
(5.70707 -1.42271e-13 0)
(5.70707 -7.11223e-14 0)
(5.70707 -4.68748e-14 0)
(5.70707 -1.22758e-13 0)
(5.70707 -1.13976e-13 0)
(5.70707 -1.22091e-13 0)
(5.70707 -1.3295e-13 0)
(5.70707 -1.97254e-13 0)
(5.70707 -2.20875e-13 0)
(5.70707 -2.06789e-13 0)
(5.70707 -1.80701e-13 0)
(5.70707 -1.30973e-13 0)
(5.70707 -1.1242e-13 0)
(5.70707 3.98736e-15 0)
(5.70707 4.87418e-15 0)
(5.70707 1.36023e-15 0)
(5.70707 1.90566e-14 0)
(5.70707 3.56828e-14 0)
(5.70707 1.61528e-14 0)
(5.70707 -9.53498e-16 0)
(5.70707 6.55447e-15 0)
(5.70707 6.66348e-14 0)
(5.70707 5.74999e-14 0)
(5.70707 7.17824e-14 0)
(5.70707 7.30026e-14 0)
(5.70707 4.68414e-14 0)
(5.70707 4.71948e-14 0)
(5.70707 2.84783e-14 0)
(5.70707 1.49292e-14 0)
(5.70707 1.06758e-13 0)
(5.70707 1.31159e-13 0)
(5.70707 1.72496e-13 0)
(5.70707 2.42529e-13 0)
(5.70707 1.54937e-13 0)
(5.70707 6.75983e-14 0)
(5.70707 2.76881e-14 0)
(5.70707 -1.08452e-14 0)
(5.70707 -4.67881e-14 0)
(5.70707 -4.8025e-14 0)
(5.70707 -2.44075e-14 0)
(5.70707 -7.29159e-14 0)
(5.70707 -1.07859e-13 0)
(5.70707 -8.44012e-14 0)
(5.70707 -1.20721e-14 0)
(5.70707 1.06042e-13 0)
(5.70707 -2.17704e-14 0)
(5.70707 -2.18121e-13 0)
(5.70707 -2.59918e-13 0)
(5.70707 -2.67556e-13 0)
(5.70707 -2.60962e-13 0)
(5.70707 -2.66789e-13 0)
(5.70707 -2.79088e-13 0)
(5.70707 -3.17805e-13 0)
(5.70707 -6.26775e-16 0)
(5.70707 9.98506e-15 0)
(5.70707 2.80148e-14 0)
(5.70707 3.37125e-14 0)
(5.70707 3.22422e-14 0)
(5.70707 -2.06269e-14 0)
(5.70707 1.45692e-15 0)
(5.70707 4.49511e-14 0)
(5.70707 1.03648e-13 0)
(5.70707 1.20354e-13 0)
(5.70707 8.22475e-14 0)
(5.70707 8.39312e-14 0)
(5.70707 7.67099e-14 0)
(5.70707 4.48577e-14 0)
(5.70707 -4.77282e-14 0)
(5.70707 -9.30494e-14 0)
(5.70707 -8.67717e-14 0)
(5.70707 4.18339e-14 0)
(5.70707 1.77324e-13 0)
(5.70707 2.12907e-13 0)
(5.70707 2.37761e-13 0)
(5.70707 2.21075e-13 0)
(5.70707 1.85065e-14 0)
(5.70707 -8.43146e-15 0)
(5.70707 1.70429e-14 0)
(5.70707 5.26058e-14 0)
(5.70707 1.57401e-13 0)
(5.70707 1.1383e-13 0)
(5.70707 -5.25124e-14 0)
(5.70707 -7.36927e-14 0)
(5.70707 -2.9205e-15 0)
(5.70707 6.11739e-14 0)
(5.70707 8.4748e-15 0)