/*--------------------------------*- C++ -*----------------------------------*\
| =========                 |                                                 |
| \\      /  F ield         | OpenFOAM: The Open Source CFD Toolbox           |
|  \\    /   O peration     | Version:  2206                                  |
|   \\  /    A nd           | Website:  www.openfoam.com                      |
|    \\/     M anipulation  |                                                 |
\*---------------------------------------------------------------------------*/
FoamFile
{
    version     2.0;
    format      ascii;
    arch        "LSB;label=32;scalar=64";
    class       volVectorField;
    location    "0.08";
    object      U;
}
// * * * * * * * * * * * * * * * * * * * * * * * * * * * * * * * * * * * * * //

dimensions      [0 1 -1 0 0 0 0];

internalField   nonuniform List<vector> 
75
(
(6.51515 -3.2664e-15 0)
(6.51515 -3.23723e-15 0)
(6.51515 1.3444e-14 0)
(6.51515 -7.35544e-16 0)
(6.51515 -1.43587e-14 0)
(6.51515 -3.06303e-16 0)
(6.51515 -3.90984e-15 0)
(6.51515 -1.7253e-15 0)
(6.51515 -2.54461e-15 0)
(6.51515 3.56394e-14 0)
(6.51515 -3.22806e-15 0)
(6.51515 -3.14929e-15 0)
(6.51515 -2.62362e-14 0)
(6.51515 -1.53877e-14 0)
(6.51515 -6.00297e-15 0)
(6.51515 -3.07095e-15 0)
(6.51515 -2.86299e-16 0)
(6.51515 3.60729e-15 0)
(6.51515 1.51389e-14 0)
(6.51515 2.47755e-14 0)
(6.51515 3.05136e-15 0)
(6.51515 2.9155e-15 0)
(6.51515 7.39128e-15 0)
(6.51515 2.32061e-14 0)
(6.51515 9.36966e-14 0)
(6.4922 -0.00193178 0)
(6.45122 0.0657073 0)
(6.40996 0.077583 0)
(6.35056 0.242986 0)
(6.30926 0.27302 0)
(6.22899 0.501165 0)
(6.19957 0.533993 0)
(6.09023 0.814124 0)
(6.08089 0.853004 0)
(5.93535 1.14153 0)
(6.51515 4.30285e-06 0)
(6.51515 3.90973e-05 0)
(6.52529 -0.0208667 0)
(6.50828 0.0360355 0)
(6.51081 0.0055028 0)
(6.4406 0.17106 0)
(6.4176 0.256741 0)
(6.22832 0.730205 0)
(6.20789 0.942315 0)
(5.87474 1.69755 0)
(6.51515 -2.316e-10 0)
(6.51515 -1.52609e-07 0)
(6.51515 8.09263e-07 0)
(6.51515 -1.93588e-06 0)
(6.51515 1.82984e-05 0)
(6.51516 -1.44616e-05 0)
(6.51806 -0.00803179 0)
(6.51186 0.0141415 0)
(6.51203 0.00997423 0)
(6.37098 0.498288 0)
(6.51515 6.59929e-12 0)
(6.51515 -3.72775e-09 0)
(6.51515 2.06584e-08 0)
(6.51515 -3.01441e-08 0)
(6.51515 3.06073e-07 0)
(6.51515 -2.4108e-08 0)
(6.51525 -0.00031292 0)
(6.51519 -0.00027272 0)
(6.51517 -0.000180157 0)
(6.50804 0.0363315 0)
(6.51515 8.93266e-14 0)
(6.51515 -1.7858e-10 0)
(6.51515 1.10893e-09 0)
(6.51515 -3.56994e-09 0)
(6.51515 1.39724e-08 0)
(6.51515 1.55954e-08 0)
(6.51515 1.95028e-06 0)
(6.51515 -3.24706e-05 0)
(6.51516 -4.23417e-05 0)
(6.51508 0.000375673 0)
)
;

boundaryField
{
    inlet
    {
        type            fixedValue;
        value           uniform (6.51515 0 0);
    }
    outlet
    {
        type            zeroGradient;
    }
    bottom
    {
        type            symmetryPlane;
    }
    top
    {
        type            symmetryPlane;
    }
    obstacle
    {
        type            slip;
    }
    defaultFaces
    {
        type            empty;
    }
}


// ************************************************************************* //
