/*--------------------------------*- C++ -*----------------------------------*\
| =========                 |                                                 |
| \\      /  F ield         | OpenFOAM: The Open Source CFD Toolbox           |
|  \\    /   O peration     | Version:  2206                                  |
|   \\  /    A nd           | Website:  www.openfoam.com                      |
|    \\/     M anipulation  |                                                 |
\*---------------------------------------------------------------------------*/
FoamFile
{
    version     2.0;
    format      ascii;
    arch        "LSB;label=32;scalar=64";
    class       volScalarField;
    location    "0.18";
    object      p;
}
// * * * * * * * * * * * * * * * * * * * * * * * * * * * * * * * * * * * * * //

dimensions      [1 -1 -2 0 0 0 0];

internalField   nonuniform List<scalar> 
4800
(
1
1
1
1
1
1
1
1
1
1
1
1
1
1
1
1
1
1
1
1
1
1
1
1
1
1
1
1
1
1
1
1
1
1
1
1
1
1
1
1
1
1
1
1
1
1
1
1
1
1
1
1
1
1
1
1
1
1
1
1
1
1
1
1
1
1
1
1
1
1
1
1
1
1
1
1
1
1
1
1
1
1
1
1
1
1
1
1
1
1
1
1
1
1
1
1
1
1
1
1
1
1
1
1
1
1
1
1
1
1
1
1
1
1
1
1
1
1
1
1
1
1
1
1
1
1
1
1
1
1
1
1
1
1
1
1
1
1
1
1
1
1
1
1
1
1
1
1
1
1
1
1
1
1
1
1
1
1
1
1
1
1
1
1
1
1
1
1
1
1
1
1
1
1
1
1
1
1
1
1
1
1
1
1
1
1
1
1
1
1
1
1
1
1
1
1
1
1
1
1
1
1
1
1
1
1
1
1
1
1
1
1
1
1
1
1
1
1
1
1
1
1
1
1
1
1
1
1
1
1
1
1
1
1
1
1
1
1
1
1
1
1
1
1
1
1
1
1
1
1
1
1
1
1
1
1
1
1
1
1
1
1
1
1
1
1
1
1
1
1
1
1
1
1
1
1
1
1
1
1
1
1
1
1
1
1
1
1
1
1
1
1
1
1
1
1
1
1
1
1
1
1
1
1
1
1
1
1
1
1
1
1
1
1
1
1
1
1
1
1
1
1
1
1
1
1
1
1
1
1
1
1
1
1
1
1
1
1
1
1
1
1
1
1
1
1
1
1
1
1
1
1
1
1
1
1
1
1
1
1
1
1
1
1
1
1
1
1
1
1
1
1
1
1
1
1
1
1
1
1
1
1
1
1
1
1
1
1
1
1
1
1
1
1
1
1
1
1
1
1
1
1
1
1
1
1
1
1
1
1
1
1
1
1
1
1
1
1
1
1
1
1
1
1
1
1
1
1
1
1
1
1
1
1
1
1
1
1
1
1
1
1
1
1
1
1
1
1
1
1
1
1
1
1
1
1
1
1
1
1
1
1
1
1
1
1
1
1
1
1
1
1
1
1
1
1
1
1
1
1
1
1
1
1
1
1
1
1
1
1
1
1
1
1
1
1
1
1
1
1
1
1
1
1
1
1
1
1
1
1
1
1
1
1
1
1
1
1
1
1
1
1
1
1
1
1
1
1
1
1
1
1
1
1
1
1
1
1
1
1
1
1
1
1
1
1
1
1
1
1
1
1
1
1
1
1
1
1
1
1
1
1
1
1
1
1
1
1
1
1
1
1
1
1
1
1
1
1
1
1
1
1
1
1
1
1
1
1
1
1
1
1
1
1
1
1
1
1
1
1
1
1
1
1
1
1
1
1
1
1
1
1
1
1
1
1
1
1
1
1
1
1
1
1
1
1
1
1
1
1
1
1
1
1
1
1
1
1
1
1
1
1
1
1
1
1
1
1
1
1
1
1
1
1
1
1
1
1
1
1
1
1
1
1
1
1
1
1
1
1
1
1
1
1
1
1
1
1
1
1
1
1
1
1
1
1
1
1
1
1
1
1
1
1
1
1
1
1
1
1
1
1
1
1
1
1
1
1
1
1
1
1
1
1
1
1
1
1
1
1
1
1
1
1
1
1
1
1
1
1
1
1
1
1
1
1
1
1
1
1
1
1
1
1
1
1
1
1
1
1
1
1
1
1
1
1
1
1
1
1
1
1
1
1
1
1
1
1
1
1
1
1
1
1
1
1
1
1
1
1
1
1
1
1
1
1
1
1
1
1
1
1
1
1
1
1
1
1
1
1
1
1
1
1
1
1
1
1
1
1
1
1
1
1
1
1
1
1
1
1
1
1
1
1
1
1
1
1
1
1
1
1
1
1
1
1
1
1
1
1
1
1
1
1
1
1
1
1
1
1
1
1
1
1
1
1
1
1
1
1
1
1
1
1
1
1
1
1
1
1
1
1
1
1
1
1
1
1
1
1
1
1
1
1
1
1
1
1
1
1
1
1
1
1
1
1
1
1
1
1
1
1
1
1
1
1
1
1
1
1
1
1
1
1
1
1
1
1
1
1
1
1
1
1
1
1
1
1
1
1
1
1
1
1
1
1
1
1
1
1
1
1
1
1
1
1
1
1
1
1
1
1
1
1
1
1
1
1
1
1
1
1
1
1
1
1
1
1
1
1
1
1
1
1
1
1
1
1
1
1
1
1
1
1
1
1
1
1
1
1
1
1
1
1
1
1
1
1
1
1
1
1
1
1
1
1
1
1
1
1
1
1
1
1
1
1
1
1
1
1
1
1
1
1
1
1
1
1
1
1
1
1
1
1
1
1
1
1
1
1
1
1
1
1
1
1
1
1
1
1
1
1
1
1
1
1
1
1
1
1
1
1
1
1
1
1
1
1
1
1
1
1
1
1
1
1
1
1
1
1
1
1
1
1
1
1
1
1
1
1
1
1
1
1
1
1
1
1
1
1
1
1
1
1
1
1
1
1
1
1
1
1
1
1
1
1
1
1
1
1
1
1
1
1
1
1
1
1
1
1
1
1
1
1
1
1
1
1
1
1
1
1
1
1
1
1
1
1
1
1
1
1
1
1
1
1
1
1
1
1
1
1
1
1
1
1
1
1
1
1
1
1
1
1
1
1
1
1
1
1
1
1
1
1
1
1
1
1
1
1
1
1
1
1
1
1
1
1
1
1
1
1
1
1
1
1
1
1
1
1
1
1
1
1
1
1
1
1
1
1
1
1
1
1
1
1
1
1
1
1
1
1
1
1
1
1
1
1
1
1
1
1
1
1
1
1
1
1
1
1
1
1
1
1
1
1
1
1
1
1
1
1
1
1
1
1
1
1
1
1
1
1
1
1
1
1
1
1
1
1
1
1
1
1
1
1
1
1
1
1
1
1
1
1
1
1
1
1
1
1
1
1
1
1
1
1
1
1
1
1
1
1
1
1
1
1
1
1
1
1
1
1
1
1
1
1
1
1
1
1
1
1
1
1
1
1
1
1
1
1
1
1
1
1
1
1
1
1
1
1
1
1
1
1
1
1
1
1
1
1
1
1
1
1
1
1
1
1
1
1
1
1
1
1
1
1
1
1
1
1
1
1
1
1
1
1
1
1
1
1
1
1
1
1
1
1
1
1
1
1
1
1
1
1
1
1
1
1
1
1
1
1
1
1
1
1
1
1
1
1
1
1
1
1
1
1
1
1
1
1
1
1
1
1
1
1
1
1
1
1
1
1
1
1
1
1
1
1
1
1
1
1
1
1
1
1
1
1
1
1
1
1
1
1
1
1
1
1
1
1
1
1
1
1
1
1
1
1
1
1
1
1
1
1
1
1
1
1
1
1
1
1
1
1
1
1
1
1
1
1
1
1
1
1
1
1
1
1
1
1
1
1
1
1
1
1
1
1
1
1
1
1
1
1
1
1
1
1
1
1
1
1
1
1
1
1
1
1
1
1
1
1
1
1
1
1
1
1
1
1
1
1
1
1
1
1
1
1
1
1
1
1
1
1
1
1
1
1
1
1
1
1
1
1
1
1
1
1
1
1
1
1
1
1
1
1
1
1
1
1
1
1
1
1
1
1
1
1
1
1
1.27546
1.71754
2.1748
2.65708
3.16252
3.48515
3.76813
3.86937
3.7873
3.57615
3.304
3.01624
2.9265
2.88797
2.84016
2.83685
2.85661
2.88501
2.90775
2.92017
2.92528
2.92751
2.93159
2.94137
2.95324
2.9565
2.95714
2.95425
2.95031
2.94572
2.94254
2.94205
2.94222
2.94285
2.94377
2.94393
2.94417
2.94572
2.9463
2.94631
2.94646
2.94699
2.94769
2.94835
2.94922
2.9503
2.95057
2.95056
2.95009
2.9493
2.94915
2.94919
2.94904
2.94894
2.94892
2.94895
2.94901
2.94912
2.94939
2.94955
2.94955
2.94949
2.94955
2.9497
2.94972
2.94966
2.94962
2.94955
2.94948
2.94938
2.94918
2.94875
2.94775
2.94568
2.94158
2.93489
2.92652
2.91354
2.89818
2.87551
1.00807
1.04018
1.14295
1.29532
1.54787
1.88023
2.2382
2.5945
2.83295
3.00669
3.10667
3.09699
3.05861
3.04321
3.00176
2.95025
2.92677
2.9036
2.89296
2.89635
2.90328
2.91475
2.92614
2.9376
2.94413
2.94509
2.94535
2.94549
2.94565
2.94578
2.94736
2.95002
2.95198
2.95279
2.95307
2.95198
2.95023
2.95022
2.95067
2.9505
2.95044
2.95028
2.95014
2.95024
2.95043
2.95057
2.95022
2.9498
2.94928
2.94871
2.94875
2.94893
2.94898
2.94931
2.94969
2.94974
2.94977
2.94972
2.94967
2.94965
2.94962
2.94958
2.94966
2.94978
2.94978
2.9498
2.94987
2.94985
2.94983
2.94973
2.94949
2.94896
2.9478
2.94543
2.9411
2.93428
2.92499
2.91114
2.89605
2.8735
1
1.00009
1.00122
1.00573
1.02426
1.08436
1.23195
1.54316
2.0655
2.70279
2.9935
3.2311
3.2427
3.22275
3.16706
3.07465
2.93946
2.88938
2.88316
2.88815
2.90535
2.91858
2.92441
2.92405
2.92419
2.92708
2.93209
2.93846
2.94473
2.94832
2.95049
2.95252
2.95453
2.95541
2.9555
2.95478
2.95313
2.95208
2.95224
2.95266
2.95283
2.95284
2.95269
2.95246
2.95225
2.95182
2.95112
2.95036
2.94977
2.94936
2.94942
2.94967
2.94992
2.95041
2.95087
2.95085
2.95089
2.95089
2.95067
2.95056
2.95053
2.95042
2.95032
2.95034
2.95034
2.95042
2.95058
2.95064
2.95073
2.95055
2.95017
2.94949
2.94814
2.94548
2.94083
2.93369
2.92406
2.90982
2.89486
2.87235
1
1
1
1
1.00003
1.00042
1.00302
1.02005
1.11051
1.4052
1.92039
2.52525
2.95819
3.03629
3.06672
3.06519
3.02123
2.99625
2.97525
2.94424
2.93204
2.92066
2.90891
2.90633
2.90831
2.91387
2.92091
2.92997
2.9389
2.9431
2.94491
2.94609
2.94744
2.94776
2.94813
2.94855
2.94942
2.95009
2.9508
2.95179
2.95209
2.95223
2.95203
2.95151
2.95093
2.95061
2.94981
2.9489
2.94859
2.94852
2.94882
2.94934
2.95007
2.95108
2.95189
2.95185
2.95185
2.95183
2.95143
2.95113
2.95106
2.95087
2.95071
2.95059
2.95061
2.9508
2.95102
2.95123
2.95144
2.95118
2.95063
2.9498
2.94826
2.94523
2.94005
2.93268
2.92293
2.90854
2.8934
2.87103
1
1
1
1
1
1
0.999999
1.00002
1.00062
1.00883
1.08144
1.29716
1.80306
2.35301
2.8788
3.067
3.10859
3.10149
3.07984
3.01385
2.95226
2.92792
2.91096
2.90812
2.91077
2.91396
2.91982
2.9254
2.93235
2.93798
2.9413
2.94296
2.94404
2.94404
2.94445
2.94525
2.94507
2.94502
2.94501
2.94535
2.94613
2.94639
2.94654
2.94698
2.94756
2.94771
2.94725
2.94652
2.94628
2.94647
2.94693
2.94767
2.94866
2.94982
2.95073
2.95063
2.95051
2.95036
2.94978
2.94945
2.94935
2.94913
2.94908
2.94907
2.94914
2.94941
2.94979
2.95025
2.95069
2.9505
2.94998
2.94919
2.94751
2.9442
2.93877
2.93116
2.92103
2.90658
2.89158
2.86907
1
1
1
1
1
1
1
1
1
0.999999
1.00036
1.00476
1.05153
1.25518
1.66613
2.23798
2.66403
2.99251
3.0107
3.00915
3.01301
3.00303
2.97069
2.96016
2.95098
2.94055
2.92981
2.92418
2.92597
2.93378
2.94248
2.94761
2.94955
2.94937
2.94802
2.94759
2.94658
2.94642
2.94584
2.94538
2.94625
2.94649
2.94647
2.94736
2.94874
2.94877
2.94801
2.94731
2.94713
2.94731
2.94793
2.94856
2.94928
2.95011
2.95073
2.95049
2.95025
2.94986
2.94923
2.94896
2.9487
2.94837
2.94831
2.9484
2.9485
2.94873
2.9491
2.94958
2.94995
2.94992
2.94964
2.94891
2.9472
2.94369
2.93805
2.93004
2.9191
2.9043
2.88934
2.86693
1
1
1
1
1
1
1
1
1
1
1
0.999998
1.00017
1.00408
1.03173
1.20949
1.57809
2.15569
2.55313
2.87143
3.02006
3.02302
3.0127
2.99955
2.98373
2.96002
2.9409
2.93254
2.93198
2.93519
2.94174
2.94853
2.95511
2.95624
2.9524
2.94984
2.94992
2.94895
2.94769
2.94759
2.94877
2.94943
2.95028
2.95186
2.95287
2.95242
2.95177
2.95147
2.95097
2.95055
2.95066
2.95087
2.95109
2.95144
2.95165
2.95131
2.95086
2.95022
2.94975
2.94948
2.94898
2.94835
2.94819
2.94839
2.94848
2.94863
2.94894
2.94945
2.94976
2.94967
2.94967
2.94907
2.94734
2.94375
2.93799
2.9297
2.91804
2.90307
2.88806
2.86552
1
1
1
1
1
1
1
1
1
1
1
1
1
0.999998
1.00007
1.00316
1.02716
1.14881
1.52696
2.03646
2.56322
2.7578
2.87621
2.91436
2.93224
2.9396
2.93686
2.93649
2.93172
2.92663
2.92823
2.93285
2.93903
2.94602
2.9479
2.94937
2.95114
2.95014
2.94895
2.94957
2.95124
2.95257
2.95268
2.953
2.95322
2.95315
2.95341
2.95381
2.95327
2.95238
2.95188
2.95185
2.95185
2.95202
2.95187
2.95129
2.95072
2.95027
2.95007
2.94988
2.94935
2.9486
2.94843
2.9486
2.94853
2.94863
2.94895
2.94944
2.94968
2.94956
2.94969
2.94917
2.94733
2.94365
2.93781
2.92942
2.91729
2.90217
2.88693
2.86424
1
1
1
1
1
1
1
1
1
1
1
1
1
1
1
0.999998
1.00006
1.0017
1.02643
1.12445
1.46117
1.97304
2.57287
2.7863
2.8628
2.91969
2.91771
2.92245
2.91955
2.91055
2.90975
2.91285
2.91717
2.92485
2.93213
2.93563
2.93879
2.9397
2.94031
2.94213
2.94498
2.94763
2.9483
2.94864
2.94883
2.94911
2.95
2.95066
2.95038
2.95016
2.95046
2.95086
2.95087
2.95093
2.95066
2.9501
2.94977
2.94984
2.95003
2.95006
2.94985
2.94978
2.95006
2.94986
2.94939
2.94911
2.94923
2.94956
2.94977
2.94966
2.94978
2.94926
2.94728
2.94346
2.9375
2.92905
2.91658
2.90148
2.8862
2.86346
1
1
1
1
1
1
1
1
1
1
1
1
1
1
1
1
1
0.999998
1.00007
1.00134
1.02106
1.1254
1.42925
1.94215
2.44317
2.80042
2.89733
2.93359
2.93298
2.92258
2.92605
2.92595
2.92102
2.92085
2.92214
2.9247
2.9294
2.93398
2.93632
2.93853
2.94137
2.94461
2.9453
2.94531
2.94532
2.94527
2.94588
2.94675
2.94712
2.94727
2.94803
2.949
2.9492
2.94957
2.94949
2.94905
2.9487
2.94914
2.94964
2.95004
2.95049
2.95074
2.95058
2.95015
2.94968
2.9493
2.94931
2.94942
2.94937
2.94924
2.94937
2.94886
2.94689
2.94302
2.93692
2.9284
2.91592
2.90105
2.88566
2.86277
1
1
1
1
1
1
1
1
1
1
1
1
1
1
1
1
1
1
1
0.999999
1.00006
1.00155
1.01652
1.13351
1.40101
1.89566
2.39628
2.77839
2.9003
2.9558
2.96439
2.96696
2.9613
2.9555
2.94546
2.9402
2.9425
2.94581
2.9472
2.94857
2.95006
2.95142
2.94921
2.94708
2.94641
2.94595
2.94578
2.9458
2.94613
2.94587
2.9464
2.9476
2.94806
2.94865
2.94874
2.9484
2.94813
2.94854
2.94917
2.94963
2.95027
2.95064
2.95035
2.94999
2.94966
2.94937
2.94915
2.94904
2.94901
2.94898
2.94899
2.94833
2.9461
2.94207
2.93579
2.92715
2.91468
2.90016
2.88484
2.86197
1
1
1
1
1
1
1
1
1
1
1
1
1
1
1
1
1
1
1
1
1
0.999999
1.00004
1.00194
1.0156
1.1167
1.4239
1.92351
2.36565
2.72751
2.87602
2.93568
2.96211
2.97066
2.96191
2.94817
2.94791
2.94906
2.95064
2.95346
2.9585
2.95946
2.95665
2.95388
2.9525
2.95165
2.95038
2.94989
2.95004
2.95029
2.95083
2.95128
2.95153
2.95179
2.95154
2.95058
2.94934
2.9485
2.94884
2.94928
2.94999
2.9502
2.94976
2.94942
2.94921
2.94897
2.94874
2.94882
2.94888
2.94879
2.94865
2.94785
2.94561
2.94145
2.93478
2.92569
2.91306
2.89901
2.88326
2.86081
1
1
1
1
1
1
1
1
1
1
1
1
1
1
1
1
1
1
1
1
1
1
1
0.999999
1.00004
1.0018
1.0196
1.11787
1.46498
1.999
2.43815
2.68599
2.83757
2.90557
2.92533
2.91876
2.91789
2.92801
2.93711
2.94424
2.94842
2.95058
2.95271
2.95263
2.95166
2.95052
2.94778
2.94747
2.94839
2.9508
2.95279
2.95309
2.9531
2.9532
2.95299
2.95218
2.95101
2.9499
2.95004
2.95057
2.95094
2.95085
2.95038
2.95002
2.94977
2.94926
2.94864
2.9486
2.94874
2.94888
2.94892
2.94787
2.94539
2.94092
2.93385
2.92441
2.91214
2.89806
2.8824
2.8597
1
1
1
1
1
1
1
1
1
1
1
1
1
1
1
1
1
1
1
1
1
1
1
1
1
1
1.00007
1.00201
1.0287
1.13912
1.4951
2.01954
2.58508
2.7539
2.8442
2.8784
2.88759
2.90327
2.91359
2.9224
2.92843
2.93203
2.93566
2.93945
2.94098
2.94141
2.94245
2.94307
2.94408
2.94724
2.95032
2.95113
2.95184
2.95242
2.95235
2.95138
2.95012
2.94908
2.94939
2.95006
2.95033
2.95023
2.94992
2.94972
2.94953
2.94903
2.94826
2.94799
2.94817
2.94857
2.94883
2.94779
2.94544
2.94107
2.93398
2.92429
2.91182
2.89721
2.88112
2.85785
1
1
1
1
1
1
1
1
1
1
1
1
1
1
1
1
1
1
1
1
1
1
1
1
1
1
1
1
1.00016
1.00252
1.03565
1.16958
1.56011
2.10993
2.62247
2.84849
2.90117
2.93178
2.93894
2.94118
2.93983
2.93736
2.93647
2.93632
2.93864
2.94014
2.94076
2.94211
2.94371
2.94625
2.94863
2.94942
2.95058
2.95176
2.95183
2.95088
2.94905
2.94778
2.94842
2.94912
2.94939
2.94932
2.94918
2.94918
2.94909
2.94859
2.94771
2.94718
2.9474
2.9479
2.94808
2.94732
2.94512
2.94102
2.93397
2.92411
2.91143
2.89628
2.87956
2.85647
1
1
1
1
1
1
1
1
1
1
1
1
1
1
1
1
1
1
1
1
1
1
1
1
1
1
1
1
1
1
1.00028
1.00398
1.04587
1.23643
1.67023
2.21941
2.68022
2.86788
2.95742
2.97296
2.968
2.96058
2.95793
2.95575
2.95294
2.9512
2.95001
2.95064
2.95186
2.95363
2.95312
2.95174
2.95185
2.95247
2.9526
2.95167
2.94938
2.94801
2.9486
2.94901
2.94922
2.94926
2.94942
2.94959
2.9494
2.94881
2.94783
2.94714
2.94742
2.94792
2.94808
2.94746
2.94527
2.94111
2.93391
2.92383
2.91092
2.89524
2.8779
2.85481
1
1
1
1
1
1
1
1
1
1
1
1
1
1
1
1
1
1
1
1
1
1
1
1
1
1
1
1
1
1
1
1
1.00051
1.00777
1.06937
1.34915
1.85045
2.34143
2.69625
2.87444
2.93678
2.9424
2.94706
2.95258
2.95143
2.94812
2.94773
2.94957
2.95284
2.95523
2.95407
2.95175
2.95103
2.95168
2.95183
2.9507
2.94906
2.94815
2.9484
2.94854
2.94888
2.94912
2.94948
2.94968
2.94938
2.9488
2.94795
2.94752
2.94808
2.94869
2.9489
2.94829
2.94605
2.94158
2.93397
2.92363
2.91067
2.89471
2.87677
2.85363
1
1
1
1
1
1
1
1
1
1
1
1
1
1
1
1
1
1
1
1
1
1
1
1
1
1
1
1
1
1
1
1
1
1.00002
1.00113
1.01786
1.11122
1.46879
2.06391
2.55398
2.75349
2.84963
2.89137
2.92302
2.92176
2.92146
2.92519
2.93111
2.93902
2.94573
2.94863
2.94937
2.94932
2.94897
2.94918
2.94873
2.94758
2.9471
2.94709
2.94743
2.94829
2.94868
2.94915
2.94952
2.94925
2.94857
2.94757
2.94749
2.94834
2.94916
2.94949
2.94876
2.94636
2.94138
2.93333
2.92288
2.91012
2.89421
2.87618
2.85297
1
1
1
1
1
1
1
1
1
1
1
1
1
1
1
1
1
1
1
1
1
1
1
1
1
1
1
1
1
1
1
1
1
1
1
1.0001
1.00248
1.03776
1.19625
1.65342
2.25542
2.73096
2.87194
2.91866
2.91549
2.91754
2.92554
2.93192
2.93837
2.94312
2.94667
2.9471
2.94714
2.94731
2.9472
2.9468
2.94684
2.94675
2.94681
2.94796
2.94932
2.94991
2.95061
2.95121
2.95061
2.94852
2.94682
2.94697
2.948
2.9491
2.94958
2.94864
2.94595
2.94032
2.93186
2.92157
2.90921
2.89357
2.87588
2.85278
1
1
1
1
1
1
1
1
1
1
1
1
1
1
1
1
1
1
1
1
1
1
1
1
1
1
1
1
1
1
1
1
1
1
1
1
1
1.00042
1.00665
1.08036
1.33759
1.89574
2.4884
2.81395
2.92425
2.94932
2.96196
2.9609
2.9601
2.95898
2.95726
2.95414
2.95237
2.95168
2.95082
2.95028
2.95015
2.94975
2.94945
2.95061
2.9517
2.95223
2.95279
2.95305
2.95168
2.94857
2.94675
2.94703
2.94782
2.94883
2.9494
2.94845
2.94553
2.93939
2.93048
2.92008
2.90792
2.89252
2.87543
2.85248
1
1
1
1
1
1
1
1
1
1
1
1
1
1
1
1
1
1
1
1
1
1
1
1
1
1
1
1
1
1
1
1
1
1
1
1
1
1
1.00003
1.00165
1.01909
1.17033
1.58997
2.17533
2.60701
2.85693
2.9393
2.95011
2.9522
2.95507
2.95404
2.95191
2.95137
2.9508
2.94975
2.94976
2.94979
2.94996
2.95051
2.95185
2.95259
2.95304
2.95357
2.95409
2.95327
2.95026
2.94744
2.94706
2.9474
2.94825
2.94897
2.94801
2.94486
2.9385
2.9294
2.91892
2.90645
2.89136
2.87478
2.852
1
1
1
1
1
1
1
1
1
1
1
1
1
1
1
1
1
1
1
1
1
1
1
1
1
1
1
1
1
1
1
1
1
1
1
1
1
1
1
1
1.00018
1.00645
1.05594
1.33556
1.91945
2.53029
2.74922
2.85483
2.89655
2.92608
2.93232
2.93357
2.93709
2.9393
2.93989
2.94049
2.94211
2.94517
2.94757
2.94908
2.94999
2.95096
2.95249
2.95342
2.95299
2.95118
2.94817
2.94643
2.94642
2.94671
2.9475
2.94669
2.94357
2.93723
2.92817
2.91796
2.90533
2.8912
2.8748
2.85225
1
1
1
1
1
1
1
1
1
1
1
1
1
1
1
1
1
1
1
1
1
1
1
1
1
1
1
1
1
1
1
1
1
1
1
1
1
1
1
1
1
1.00003
1.00103
1.02466
1.16172
1.61188
2.26494
2.74285
2.88528
2.93707
2.94365
2.93925
2.94054
2.941
2.93886
2.93657
2.93797
2.94296
2.9469
2.94771
2.94794
2.9487
2.94987
2.95188
2.95198
2.9507
2.94814
2.94575
2.94523
2.94527
2.9461
2.94557
2.94266
2.93656
2.92791
2.91797
2.90527
2.8918
2.87392
2.8517
1
1
1
1
1
1
1
1
1
1
1
1
1
1
1
1
1
1
1
1
1
1
1
1
1
1
1
1
1
1
1
1
1
1
1
1
1
1
1
1
1
1
1
1.00031
1.00594
1.07834
1.37718
1.98778
2.55814
2.86253
2.95122
2.96274
2.96867
2.96778
2.96087
2.94864
2.9459
2.94948
2.95394
2.95418
2.95186
2.94896
2.94909
2.95003
2.95046
2.94973
2.94796
2.94552
2.94472
2.94473
2.94545
2.94551
2.94288
2.93715
2.92885
2.91852
2.9055
2.89092
2.87176
2.8532
1
1
1
1
1
1
1
1
1
1
1
1
1
1
1
1
1
1
1
1
1
1
1
1
1
1
1
1
1
1
1
1
1
1
1
1
1
1
1
1
1
1
1
1
1.00003
1.00206
1.02816
1.23142
1.75603
2.39431
2.70678
2.84713
2.94296
2.95172
2.94839
2.94849
2.9504
2.95576
2.95912
2.95814
2.95481
2.9508
2.94894
2.94855
2.94863
2.94835
2.94779
2.94633
2.94537
2.94532
2.94584
2.94646
2.9442
2.93859
2.93035
2.91893
2.90605
2.88999
2.86865
2.87878
1
1
1
1
1
1
1
1
1
1
1
1
1
1
1
1
1
1
1
1
1
1
1
1
1
1
1
1
1
1
1
1
1
1
1
1
1
1
1
1
1
1
1
1
1
1.00001
1.00047
1.01256
1.11364
1.52526
2.2564
2.67137
2.83636
2.89373
2.90611
2.92068
2.93435
2.94659
2.95447
2.95532
2.95332
2.94952
2.94553
2.94474
2.94523
2.9469
2.94742
2.94727
2.94679
2.94675
2.94703
2.94804
2.94613
2.94056
2.932
2.91979
2.90606
2.88801
2.86646
3.0287
1
1
1
1
1
1
1
1
1
1
1
1
1
1
1
1
1
1
1
1
1
1
1
1
1
1
1
1
1
1
1
1
1
1
1
1
1
1
1
1
1
1
1
1
1
1
1
1.00012
1.00447
1.06122
1.36889
2.00189
2.62596
2.8834
2.92273
2.94621
2.9456
2.94498
2.94928
2.95262
2.95165
2.94835
2.94404
2.94302
2.94363
2.94624
2.94842
2.94889
2.94882
2.94858
2.94832
2.9489
2.94723
2.94188
2.93316
2.92043
2.90417
2.8836
2.88733
3.5751
1
1
1
1
1
1
1
1
1
1
1
1
1
1
1
1
1
1
1
1
1
1
1
1
1
1
1
1
1
1
1
1
1
1
1
1
1
1
1
1
1
1
1
1
1
1
1
1
1.00004
1.00161
1.03452
1.24499
1.80021
2.45751
2.84189
2.95305
2.95652
2.95912
2.96004
2.95924
2.95541
2.94988
2.94472
2.94304
2.9433
2.94621
2.95007
2.95099
2.95093
2.95012
2.94919
2.94884
2.9474
2.94221
2.93316
2.91865
2.8991
2.907
3.09523
4.671
1
1
1
1
1
1
1
1
1
1
1
1
1
1
1
1
1
1
1
1
1
1
1
1
1
1
1
1
1
1
1
1
1
1
1
1
1
1
1
1
1
1
1
1
1
1
1
1
1
1.00001
1.00082
1.01464
1.15949
1.67904
2.37897
2.71198
2.8544
2.92555
2.93994
2.94597
2.94643
2.94542
2.94324
2.9416
2.94216
2.94541
2.95037
2.95245
2.95242
2.95121
2.94943
2.94826
2.94701
2.94203
2.93118
2.91396
2.92114
3.14578
4.13142
5.81833
1
1
1
1
1
1
1
1
1
1
1
1
1
1
1
1
1
1
1
1
1
1
1
1
1
1
1
1
1
1
1
1
1
1
1
1
1
1
1
1
1
1
1
1
1
1
1
1
1
1
1
1.00021
1.00966
1.10063
1.52272
2.2349
2.76704
2.90773
2.92129
2.93325
2.93503
2.93799
2.94164
2.94188
2.94204
2.94437
2.9492
2.95287
2.95327
2.95232
2.9498
2.94797
2.94587
2.93976
2.9263
2.93862
3.16578
4.26039
5.70905
6.40603
1
1
1
1
1
1
1
1
1
1
1
1
1
1
1
1
1
1
1
1
1
1
1
1
1
1
1
1
1
1
1
1
1
1
1
1
1
1
1
1
1
1
1
1
1
1
1
1
1
1
1
1
1.00014
1.00395
1.07555
1.40923
2.10484
2.69431
2.90932
2.9513
2.94839
2.95269
2.95211
2.94904
2.94556
2.94562
2.94793
2.95214
2.95475
2.95453
2.95176
2.94777
2.94389
2.93533
2.94711
3.22946
4.34994
5.69232
6.43725
6.48209
1
1
1
1
1
1
1
1
1
1
1
1
1
1
1
1
1
1
1
1
1
1
1
1
1
1
1
1
1
1
1
1
1
1
1
1
1
1
1
1
1
1
1
1
1
1
1
1
1
1
1
1
1
1.00004
1.00312
1.04383
1.35413
2.07566
2.63411
2.7645
2.86975
2.9309
2.94714
2.94892
2.94729
2.94341
2.9447
2.94927
2.9548
2.95569
2.95359
2.94786
2.94055
2.95872
3.22657
4.45457
6.07303
6.54151
6.61407
6.54556
1
1
1
1
1
1
1
1
1
1
1
1
1
1
1
1
1
1
1
1
1
1
1
1
1
1
1
1
1
1
1
1
1
1
1
1
1
1
1
1
1
1
1
1
1
1
1
1
1
1
1
1
1
1
1.00003
1.00148
1.03874
1.27492
1.94369
2.58031
2.90256
2.92883
2.94671
2.95079
2.94691
2.94008
2.94022
2.94474
2.95365
2.95565
2.95358
2.94649
2.96035
3.28866
4.51018
5.84208
6.66653
6.67708
6.64268
6.55609
1
1
1
1
1
1
1
1
1
1
1
1
1
1
1
1
1
1
1
1
1
1
1
1
1
1
1
1
1
1
1
1
1
1
1
1
1
1
1
1
1
1
1
1
1
1
1
1
1
1
1
1
1
1
1
1.00001
1.00116
1.02449
1.2474
1.87014
2.47839
2.83101
2.95965
2.95916
2.94767
2.93607
2.93734
2.94485
2.95457
2.95627
2.95414
2.97831
3.28939
4.61505
6.21894
6.67736
6.75514
6.71125
6.63174
6.54538
1
1
1
1
1
1
1
1
1
1
1
1
1
1
1
1
1
1
1
1
1
1
1
1
1
1
1
1
1
1
1
1
1
1
1
1
1
1
1
1
1
1
1
1
1
1
1
1
1
1
1
1
1
1
1
1
1.00001
1.0008
1.02059
1.21062
1.8271
2.60226
2.88384
2.89133
2.91463
2.91923
2.9239
2.93882
2.95474
2.95895
2.98596
3.40477
4.7739
6.04341
6.73182
6.82283
6.77527
6.70156
6.62892
6.56201
1
1
1
1
1
1
1
1
1
1
1
1
1
1
1
1
1
1
1
1
1
1
1
1
1
1
1
1
1
1
1
1
1
1
1
1
1
1
1
1
1
1
1
1
1
1
1
1
1
1
1
1
1
1
1
1
1
1.00001
1.00055
1.02002
1.20588
1.81395
2.51505
2.86669
2.94565
2.92655
2.92475
2.94072
2.95801
3.01281
3.44028
4.92608
6.59027
6.87901
6.92568
6.84626
6.75435
6.68203
6.6334
6.56368
1
1
1
1
1
1
1
1
1
1
1
1
1
1
1
1
1
1
1
1
1
1
1
1
1
1
1
1
1
1
1
1
1
1
1
1
1
1
1
1
1
1
1
1
1
1
1
1
1
1
1
1
1
1
1
1
1
1
1
1.00075
1.01621
1.19852
1.81311
2.6084
2.76257
2.81707
2.86682
2.92095
3.01724
3.61873
5.12683
6.32516
7.01187
6.99876
6.94196
6.84382
6.72844
6.67695
6.64048
6.56923
1
1
1
1
1
1
1
1
1
1
1
1
1
1
1
1
1
1
1
1
1
1
1
1
1
1
1
1
1
1
1
1
1
1
1
1
1
1
1
1
1
1
1
1
1
1
1
1
1
1
1
1
1
1
1
1
1
1
1
1.00001
1.00041
1.01991
1.18527
1.81598
2.52919
2.81711
2.93105
3.08778
3.75333
5.34108
6.70425
6.95469
7.04561
7.00701
6.90356
6.8278
6.74021
6.68729
6.64272
6.5712
1
1
1
1
1
1
1
1
1
1
1
1
1
1
1
1
1
1
1
1
1
1
1
1
1
1
1
1
1
1
1
1
1
1
1
1
1
1
1
1
1
1
1
1
1
1
1
1
1
1
1
1
1
1
1
1
1
1
1
1
1
1.00079
1.01525
1.21654
1.89424
2.45267
3.1076
3.91773
5.45904
6.3209
6.99726
7.03389
6.98778
6.92073
6.87417
6.84004
6.78344
6.70956
6.64544
6.57127
1
1
1
1
1
1
1
1
1
1
1
1
1
1
1
1
1
1
1
1
1
1
1
1
1
1
1
1
1
1
1
1
1
1
1
1
1
1
1
1
1
1
1
1
1
1
1
1
1
1
1
1
1
1
1
1
1
1
1
1
1
1.00001
1.00051
1.02614
1.25365
2.27637
3.92206
6.01807
7.63729
7.54564
7.30912
7.02368
6.89231
6.82862
6.84872
6.85981
6.81714
6.73793
6.65783
6.57184
)
;

boundaryField
{
    inlet
    {
        type            fixedValue;
        value           uniform 1;
    }
    outlet
    {
        type            zeroGradient;
    }
    bottom
    {
        type            symmetryPlane;
    }
    top
    {
        type            symmetryPlane;
    }
    obstacle
    {
        type            zeroGradient;
    }
    defaultFaces
    {
        type            empty;
    }
}


// ************************************************************************* //
