/*--------------------------------*- C++ -*----------------------------------*\
| =========                 |                                                 |
| \\      /  F ield         | OpenFOAM: The Open Source CFD Toolbox           |
|  \\    /   O peration     | Version:  2206                                  |
|   \\  /    A nd           | Website:  www.openfoam.com                      |
|    \\/     M anipulation  |                                                 |
\*---------------------------------------------------------------------------*/
FoamFile
{
    version     2.0;
    format      ascii;
    arch        "LSB;label=32;scalar=64";
    class       volVectorField;
    location    "0.1";
    object      U;
}
// * * * * * * * * * * * * * * * * * * * * * * * * * * * * * * * * * * * * * //

dimensions      [0 1 -1 0 0 0 0];

internalField   nonuniform List<vector> 
4800
(
(6.11111 3.30057e-16 0)
(6.11111 1.94034e-15 0)
(6.11111 -5.75099e-15 0)
(6.11111 -2.96718e-16 0)
(6.11111 2.42309e-14 0)
(6.11111 2.74214e-14 0)
(6.11111 7.48796e-15 0)
(6.11111 -2.13704e-14 0)
(6.11111 -5.18956e-14 0)
(6.11111 -4.6188e-14 0)
(6.11111 -3.34758e-14 0)
(6.11111 -9.97506e-15 0)
(6.11111 3.63396e-16 0)
(6.11111 -2.80715e-15 0)
(6.11111 -7.70466e-15 0)
(6.11111 -5.86435e-15 0)
(6.11111 -1.01818e-14 0)
(6.11111 3.88267e-14 0)
(6.11111 1.10512e-13 0)
(6.11111 1.16503e-13 0)
(6.11111 8.12207e-14 0)
(6.11111 -3.99069e-15 0)
(6.11111 5.0212e-14 0)
(6.11111 7.65766e-14 0)
(6.11111 5.50595e-14 0)
(6.11111 3.05253e-14 0)
(6.11111 1.20387e-14 0)
(6.11111 2.2974e-14 0)
(6.11111 5.10755e-14 0)
(6.11111 7.66899e-14 0)
(6.11111 9.26093e-14 0)
(6.11111 6.58747e-14 0)
(6.11111 5.5933e-14 0)
(6.11111 3.94035e-14 0)
(6.11111 6.62381e-14 0)
(6.11111 8.70184e-14 0)
(6.11111 1.22114e-13 0)
(6.11111 6.64348e-14 0)
(6.11111 -2.16104e-14 0)
(6.11111 -2.4841e-14 0)
(6.11111 2.01035e-15 0)
(6.11111 1.24021e-14 0)
(6.11111 1.86799e-14 0)
(6.11111 3.24323e-14 0)
(6.11111 5.55629e-14 0)
(6.11111 4.51078e-14 0)
(6.11111 1.03351e-16 0)
(6.11111 -7.35294e-14 0)
(6.11111 -1.26842e-13 0)
(6.11111 -7.62398e-14 0)
(6.11111 -2.54711e-15 0)
(6.11111 1.53927e-14 0)
(6.11111 1.15787e-14 0)
(6.11111 -2.17338e-14 0)
(6.11111 -3.52428e-14 0)
(6.11111 -3.22389e-15 0)
(6.11111 4.74115e-14 0)
(6.11111 5.19856e-14 0)
(6.11111 1.30166e-13 0)
(6.11111 1.34263e-13 0)
(6.11111 6.81151e-14 0)
(6.11111 -3.84366e-14 0)
(6.11111 -4.90218e-14 0)
(6.11111 4.44743e-15 0)
(6.11111 -4.67081e-15 0)
(6.11111 -4.75315e-14 0)
(6.11111 -1.49893e-14 0)
(6.11111 2.36741e-14 0)
(6.11111 6.28875e-14 0)
(6.11111 4.23907e-14 0)
(6.11111 5.0382e-14 0)
(6.11111 8.34244e-14 0)
(6.11111 5.2199e-14 0)
(6.11111 3.28823e-14 0)
(6.11111 4.65314e-14 0)
(6.11111 9.41429e-14 0)
(6.11111 1.04811e-13 0)
(6.11111 7.33427e-14 0)
(6.11111 -9.87371e-14 0)
(6.11111 -9.66956e-14 0)
(6.11111 -4.28741e-15 0)
(6.11111 3.1072e-15 0)
(6.11111 8.1214e-15 0)
(6.11111 -1.15253e-14 0)
(6.11111 -2.12837e-14 0)
(6.11111 -2.62245e-14 0)
(6.11111 -4.95319e-14 0)
(6.11111 -2.37508e-14 0)
(6.11111 3.6943e-14 0)
(6.11111 3.846e-14 0)
(6.11111 8.22309e-14 0)
(6.11111 1.05282e-13 0)
(6.11111 1.05121e-13 0)
(6.11111 9.53331e-14 0)
(6.11111 1.11203e-13 0)
(6.11111 1.47902e-13 0)
(6.11111 1.5653e-13 0)
(6.11111 1.28859e-13 0)
(6.11111 1.02024e-13 0)
(6.11111 5.30058e-14 0)
(6.11111 -2.92684e-14 0)
(6.11111 -7.96804e-14 0)
(6.11111 -1.12373e-13 0)
(6.11111 -1.14223e-13 0)
(6.11111 -1.14336e-13 0)
(6.11111 -1.46735e-13 0)
(6.11111 -1.31883e-13 0)
(6.11111 -9.79469e-14 0)
(6.11111 -8.13307e-14 0)
(6.11111 -1.10106e-13 0)
(6.11111 -1.5163e-13 0)
(6.11111 -1.00327e-13 0)
(6.11111 -5.30092e-14 0)
(6.11111 -4.87718e-14 0)
(6.11111 -6.01437e-15 0)
(6.11111 1.68016e-13 0)
(6.11111 2.63409e-13 0)
(6.11111 2.49853e-13 0)
(6.11111 1.74447e-13 0)
(6.11111 3.0749e-14 0)
(6.11111 3.2539e-15 0)
(6.11111 1.77697e-14 0)
(6.11111 9.58499e-15 0)
(6.11111 -6.51446e-15 0)
(6.11111 -1.64695e-15 0)
(6.11111 7.69466e-15 0)
(6.11111 2.11803e-14 0)
(6.11111 9.70901e-14 0)
(6.11111 1.19541e-13 0)
(6.11111 8.95155e-14 0)
(6.11111 4.87251e-14 0)
(6.11111 7.71733e-14 0)
(6.11111 1.35167e-13 0)
(6.11111 2.14767e-13 0)
(6.11111 3.19335e-13 0)
(6.11111 2.59371e-13 0)
(6.11111 1.59584e-13 0)
(6.11111 1.3574e-13 0)
(6.11111 9.50297e-14 0)
(6.11111 1.39691e-14 0)
(6.11111 -3.90601e-14 0)
(6.11111 -7.81802e-14 0)
(6.11111 -5.16322e-14 0)
(6.11111 -2.42342e-14 0)
(6.11111 -8.03139e-15 0)
(6.11111 -6.78117e-15 0)
(6.11111 -4.56179e-14 0)
(6.11111 -1.10516e-13 0)
(6.11111 -1.11286e-13 0)
(6.11111 -9.75869e-14 0)
(6.11111 -1.00334e-13 0)
(6.11111 -1.46195e-13 0)
(6.11111 -1.49836e-13 0)
(6.11111 -1.1811e-13 0)
(6.11111 -2.04669e-14 0)
(6.11111 3.90467e-14 0)
(6.11111 1.05538e-13 0)
(6.11111 1.08062e-13 0)
(6.11111 9.06823e-14 0)
(6.11111 4.78934e-14 0)
(6.11111 8.59815e-15 0)
(6.11111 1.20154e-14 0)
(6.11111 1.28389e-14 0)
(6.11111 1.46425e-14 0)
(6.11111 1.909e-14 0)
(6.11111 3.0742e-14 0)
(6.11111 5.62097e-14 0)
(6.11111 7.75601e-14 0)
(6.11111 6.22974e-14 0)
(6.11111 4.71615e-14 0)
(6.11111 4.65714e-14 0)
(6.11111 5.1959e-14 0)
(6.11111 2.5031e-14 0)
(6.11111 3.82233e-14 0)
(6.11111 2.86583e-14 0)
(6.11111 6.91119e-15 0)
(6.11111 -2.42075e-14 0)
(6.11111 -4.49278e-14 0)
(6.11111 -7.40861e-14 0)
(6.11111 -7.63398e-14 0)
(6.11111 4.63513e-14 0)
(6.11111 4.4351e-14 0)
(6.11111 -5.12422e-15 0)
(6.11111 -1.41724e-14 0)
(6.11111 -2.20771e-14 0)
(6.11111 -1.30689e-14 0)
(6.11111 -2.93184e-14 0)
(6.11111 -8.83619e-14 0)
(6.11111 -1.01744e-13 0)
(6.11111 -7.3336e-14 0)
(6.11111 -5.23557e-14 0)
(6.11111 -4.81416e-14 0)
(6.11111 -5.71632e-14 0)
(6.11111 -7.40928e-14 0)
(6.11111 -5.69365e-14 0)
(6.11111 -5.1889e-14 0)
(6.11111 -1.06952e-14 0)
(6.11111 4.10404e-15 0)
(6.11111 -5.801e-16 0)
(6.11111 -4.20362e-15 0)
(6.11111 3.66063e-15 0)
(6.11111 5.54762e-15 0)
(6.11111 1.00317e-14 0)
(6.11111 7.83802e-15 0)
(6.11111 1.22021e-14 0)
(6.11111 9.48164e-15 0)
(6.11111 5.28091e-14 0)
(6.11111 6.42778e-14 0)
(6.11111 8.11774e-14 0)
(6.11111 1.1448e-13 0)
(6.11111 1.08592e-13 0)
(6.11111 4.23807e-14 0)
(6.11111 -1.84465e-14 0)
(6.11111 -5.3886e-14 0)
(6.11111 -2.07866e-13 0)
(6.11111 -2.80912e-13 0)
(6.11111 -2.78348e-13 0)
(6.11111 -2.21052e-13 0)
(6.11111 -1.45949e-13 0)
(6.11111 -6.96454e-14 0)
(6.11111 -2.20138e-14 0)
(6.11111 -4.29741e-15 0)
(6.11111 8.37811e-15 0)
(6.11111 -4.75582e-14 0)
(6.11111 -9.77035e-14 0)
(6.11111 -6.94253e-14 0)
(6.11111 -2.48776e-14 0)
(6.11111 -2.17704e-15 0)
(6.11111 -2.1477e-14 0)
(6.11111 -1.98401e-14 0)
(6.11111 3.82199e-14 0)
(6.11111 1.25555e-14 0)
(6.11111 -3.78865e-14 0)
(6.11111 -1.14306e-13 0)
(6.11111 -1.15427e-13 0)
(6.11111 -7.69233e-14 0)
(6.11111 -5.9957e-14 0)
(6.11111 -2.08703e-14 0)
(6.11111 -8.17808e-15 0)
(6.11111 -9.75598e-15 0)
(6.11111 1.69363e-15 0)
(6.11111 -1.72096e-14 0)
(6.11111 -1.01117e-14 0)
(6.11111 2.08169e-14 0)
(6.11111 1.89133e-14 0)
(6.11111 4.6568e-14 0)
(6.11111 5.2389e-14 0)
(6.11111 -1.28155e-14 0)
(6.11111 -4.04136e-14 0)
(6.11111 -4.4621e-14 0)
(6.11111 -5.94169e-14 0)
(6.11111 -9.55365e-14 0)
(6.11111 -8.6695e-14 0)
(6.11111 -9.16692e-14 0)
(6.11111 -1.38894e-13 0)
(6.11111 -1.44625e-13 0)
(6.11111 -9.99473e-14 0)
(6.11111 -7.19891e-14 0)
(6.11111 -2.70647e-14 0)
(6.11111 -5.15989e-14 0)
(6.11111 -8.54848e-14 0)
(6.11111 -9.36462e-14 0)
(6.11111 -1.19634e-13 0)
(6.11111 -1.14263e-13 0)
(6.11111 1.80031e-16 0)
(6.11111 1.45025e-14 0)
(6.11111 5.42594e-14 0)
(6.11111 7.75301e-14 0)
(6.11111 6.48445e-14 0)
(6.11111 5.73432e-14 0)
(6.11111 7.00954e-14 0)
(6.11111 5.83234e-14 0)
(6.11111 8.15141e-15 0)
(6.11111 -6.23108e-15 0)
(6.11111 -5.94669e-14 0)
(6.11111 -6.65048e-14 0)
(6.11111 -8.87687e-14 0)
(6.11111 -8.53814e-14 0)
(6.11111 -3.97469e-14 0)
(6.11111 -7.3919e-15 0)
(6.11111 -8.87487e-15 0)
(6.11111 -3.15388e-14 0)
(6.11111 -3.34391e-14 0)
(6.11111 -2.43075e-14 0)
(6.11111 -1.69563e-14 0)
(6.11111 -7.8947e-15 0)
(6.11111 -8.76618e-14 0)
(6.11111 -1.29466e-13 0)
(6.11111 -2.09796e-13 0)
(6.11111 -2.04552e-13 0)
(6.11111 -1.46165e-13 0)
(6.11111 -1.29412e-13 0)
(6.11111 -1.1798e-13 0)
(6.11111 -8.41445e-14 0)
(6.11111 -6.41044e-14 0)
(6.11111 -5.55663e-14 0)
(6.11111 -7.68599e-14 0)
(6.11111 -9.81269e-14 0)
(6.11111 -2.06702e-14 0)
(6.11111 5.44594e-14 0)
(6.11111 4.64047e-14 0)
(6.11111 1.05018e-15 0)
(6.11111 -9.68501e-15 0)
(6.11111 1.90966e-14 0)
(6.11111 9.33628e-14 0)
(6.11111 9.88804e-14 0)
(6.11111 6.24174e-14 0)
(6.11111 4.77616e-14 0)
(6.11111 5.85234e-14 0)
(6.11111 3.56695e-14 0)
(6.11111 2.35974e-14 0)
(6.11111 3.11854e-14 0)
(6.11111 6.54313e-14 0)
(6.11111 1.14553e-13 0)
(6.11111 1.03158e-13 0)
(6.11111 7.95704e-14 0)
(6.11111 1.927e-14 0)
(6.11111 -9.49731e-14 0)
(6.11111 -9.22693e-14 0)
(6.11111 -9.65878e-14 0)
(6.11111 -3.68397e-15 0)
(6.11111 4.7975e-15 0)
(6.11111 -1.71696e-15 0)
(6.11111 -1.52193e-14 0)
(6.11111 -5.29091e-15 0)
(6.11111 -2.9105e-15 0)
(6.11111 -2.7268e-14 0)
(6.11111 -2.59245e-14 0)
(6.11111 -1.55994e-14 0)
(6.11111 5.83434e-16 0)
(6.11111 3.61162e-14 0)
(6.11111 3.92768e-14 0)
(6.11111 1.96267e-14 0)
(6.11111 1.28956e-14 0)
(6.11111 2.98552e-14 0)
(6.11111 3.29457e-14 0)
(6.11111 1.05151e-14 0)
(6.11111 -2.18704e-14 0)
(6.11111 -1.31456e-14 0)
(6.11111 1.1562e-14 0)
(6.11111 2.95251e-14 0)
(6.11111 6.78551e-14 0)
(6.11111 9.39562e-14 0)
(6.11111 9.12991e-14 0)
(6.11111 4.99186e-14 0)
(6.11111 5.1879e-14 0)
(6.11111 5.31692e-14 0)
(6.11111 3.21756e-14 0)
(6.11111 5.53896e-14 0)
(6.11111 5.89435e-14 0)
(6.11111 7.64665e-14 0)
(6.11111 6.27608e-14 0)
(6.11111 5.32159e-14 0)
(6.11111 1.81165e-14 0)
(6.11111 1.64628e-14 0)
(6.11111 -1.922e-14 0)
(6.11111 -4.49178e-14 0)
(6.11111 -1.25085e-13 0)
(6.11111 -1.37697e-13 0)
(6.11111 -1.19127e-13 0)
(6.11111 -1.5536e-15 0)
(6.11111 8.15808e-15 0)
(6.11111 1.03218e-14 0)
(6.11111 -1.74663e-14 0)
(6.11111 -3.58462e-14 0)
(6.11111 7.26459e-15 0)
(6.11111 7.3306e-14 0)
(6.11111 8.81085e-14 0)
(6.11111 8.61349e-14 0)
(6.11111 9.00989e-14 0)
(6.11111 6.57814e-14 0)
(6.11111 9.05823e-15 0)
(6.11111 1.53026e-15 0)
(6.11111 7.26792e-16 0)
(6.11111 4.36375e-14 0)
(6.11111 5.18223e-14 0)
(6.11111 5.40093e-14 0)
(6.11111 1.98201e-14 0)
(6.11111 -3.89367e-14 0)
(6.11111 -4.6168e-14 0)
(6.11111 -2.3344e-14 0)
(6.11111 2.5081e-14 0)
(6.11111 1.61428e-14 0)
(6.11111 8.61149e-15 0)
(6.11111 -3.75431e-14 0)
(6.11111 -1.47625e-14 0)
(6.11111 1.3636e-13 0)
(6.11111 1.81605e-13 0)
(6.11111 2.06399e-13 0)
(6.11111 2.41768e-13 0)
(6.11111 2.67676e-13 0)
(6.11111 1.50723e-13 0)
(6.11111 -8.48113e-14 0)
(6.11111 -1.61181e-13 0)
(6.11111 -1.54907e-13 0)
(6.11111 -1.31453e-13 0)
(6.11111 -1.56837e-13 0)
(6.11111 -1.18717e-13 0)
(6.11111 -5.77966e-14 0)
(6.11111 -1.84376e-14 0)
(6.11111 1.34357e-15 0)
(6.11111 9.35495e-15 0)
(6.11111 1.05752e-14 0)
(6.11111 -1.10252e-14 0)
(6.11111 -2.02935e-14 0)
(6.11111 -3.63896e-14 0)
(6.11111 -7.98805e-15 0)
(6.11111 -4.03403e-15 0)
(6.11111 1.50493e-14 0)
(6.11111 -2.1087e-14 0)
(6.11111 -8.88287e-14 0)
(6.11111 -1.26338e-13 0)
(6.11111 -1.16797e-13 0)
(6.11111 -1.01938e-13 0)
(6.11111 -4.31508e-14 0)
(6.11111 2.77048e-14 0)
(6.11111 2.69713e-14 0)
(6.11111 -2.82715e-15 0)
(6.11111 -3.81566e-14 0)
(6.11111 -5.792e-14 0)
(6.11111 -2.31407e-14 0)
(6.11111 -2.1107e-14 0)
(6.11111 -1.14686e-15 0)
(6.11111 3.05253e-14 0)
(6.11111 5.86735e-14 0)
(6.11111 9.93071e-14 0)
(6.11111 8.84986e-14 0)
(6.11111 6.27275e-14 0)
(6.11111 7.72067e-14 0)
(6.11111 1.06578e-13 0)
(6.11111 7.50296e-14 0)
(6.11111 3.72831e-14 0)
(6.11111 -3.80932e-14 0)
(6.11111 -1.20434e-13 0)
(6.11111 -1.47012e-13 0)
(6.11111 -1.29822e-13 0)
(6.11111 -1.39891e-13 0)
(6.11111 -1.1527e-13 0)
(6.11111 -6.45111e-14 0)
(6.11111 -7.79e-14 0)
(6.11111 1.51026e-15 0)
(6.11111 4.57412e-15 0)
(6.11111 8.41812e-15 0)
(6.11111 3.74098e-14 0)
(6.11111 5.80634e-14 0)
(6.11111 2.95284e-14 0)
(6.11111 -2.95418e-14 0)
(6.11111 -2.76914e-14 0)
(6.11111 -1.24588e-14 0)
(6.11111 -3.45693e-14 0)
(6.11111 -5.56796e-14 0)
(6.11111 -8.78452e-14 0)
(6.11111 -8.37645e-14 0)
(6.11111 -5.15422e-14 0)
(6.11111 -5.30158e-14 0)
(6.11111 -3.67363e-14 0)
(6.11111 -4.4521e-14 0)
(6.11111 -2.71447e-14 0)
(6.11111 2.43442e-14 0)
(6.11111 3.41326e-14 0)
(6.11111 3.72864e-14 0)
(6.11111 2.92784e-14 0)
(6.11111 2.75881e-14 0)
(6.11111 -6.60114e-16 0)
(6.11111 2.46109e-14 0)
(6.11111 6.46512e-14 0)
(6.11111 6.01204e-14 0)
(6.11111 1.54093e-14 0)
(6.11111 -1.15787e-14 0)
(6.11111 -4.22306e-14 0)
(6.11111 -7.57564e-14 0)
(6.11111 -9.08224e-14 0)
(6.11111 -1.10572e-13 0)
(6.11111 -3.59162e-14 0)
(6.11111 -1.64962e-14 0)
(6.11111 -9.36495e-15 0)
(6.11111 -1.21321e-14 0)
(6.11111 1.7243e-14 0)
(6.11111 5.99103e-15 0)
(6.11111 -2.32715e-14 0)
(6.11111 4.06737e-16 0)
(6.11111 9.97506e-15 0)
(6.11111 1.48259e-14 0)
(6.11111 3.0632e-14 0)
(6.11111 3.83266e-14 0)
(6.11111 4.58679e-14 0)
(6.11111 4.52511e-14 0)
(6.11111 3.33658e-14 0)
(6.11111 3.64563e-14 0)
(6.11111 5.74933e-14 0)
(6.11111 7.22458e-14 0)
(6.11111 3.62163e-14 0)
(6.11111 -1.96501e-14 0)
(6.11111 -1.40058e-14 0)
(6.11111 2.24539e-14 0)
(6.11111 2.8805e-15 0)
(6.11111 1.7583e-14 0)
(6.11111 3.86233e-14 0)
(6.11111 6.13173e-14 0)
(6.11111 7.12223e-14 0)
(6.11111 4.86384e-14 0)
(6.11111 -6.98121e-15 0)
(6.11111 -4.51645e-14 0)
(6.11111 -7.77334e-14 0)
(6.11111 -3.36725e-14 0)
(6.11111 5.95069e-14 0)
(6.11111 8.04339e-14 0)
(6.11111 6.95553e-14 0)
(6.11111 4.36275e-14 0)
(6.11111 -3.73331e-14 0)
(6.11111 -1.12296e-13 0)
(6.11111 -1.26402e-13 0)
(6.11111 -7.723e-14 0)
(6.11111 1.74897e-14 0)
(6.11111 2.95418e-14 0)
(6.11111 2.36508e-14 0)
(6.11111 4.53745e-14 0)
(6.11111 8.38011e-14 0)
(6.11111 7.25592e-14 0)
(6.11111 2.32281e-14 0)
(6.11111 -2.61045e-15 0)
(6.11111 -6.63115e-15 0)
(6.11111 8.12807e-15 0)
(6.11111 1.26155e-14 0)
(6.11111 7.76134e-15 0)
(6.11111 4.8395e-14 0)
(6.11111 7.17424e-14 0)
(6.11111 6.15406e-14 0)
(6.11111 4.8145e-14 0)
(6.11111 4.95219e-14 0)
(6.11111 2.7138e-14 0)
(6.11111 5.99437e-14 0)
(6.11111 8.58548e-14 0)
(6.11111 8.30943e-14 0)
(6.11111 9.72401e-14 0)
(6.11111 7.38294e-14 0)
(6.11111 6.22974e-14 0)
(6.11111 2.26539e-14 0)
(6.11111 -1.60894e-14 0)
(6.11111 3.14154e-14 0)
(6.11111 5.24224e-14 0)
(6.11111 1.84732e-14 0)
(6.11111 1.87166e-14 0)
(6.11111 9.02156e-15 0)
(6.11111 2.64379e-15 0)
(6.11111 1.62628e-14 0)
(6.11111 2.00135e-14 0)
(6.11111 1.79698e-15 0)
(6.11111 -5.99137e-14 0)
(6.11111 -1.60101e-13 0)
(6.11111 -2.05676e-13 0)
(6.11111 -6.67849e-14 0)
(6.11111 -1.94934e-14 0)
(6.11111 -1.35723e-14 0)
(6.11111 -3.79766e-14 0)
(6.11111 -3.44059e-15 0)
(6.11111 -7.68133e-15 0)
(6.11111 -3.12454e-14 0)
(6.11111 -6.16673e-14 0)
(6.11111 -9.63507e-14 0)
(6.11111 -2.06702e-15 0)
(6.11111 -3.45526e-14 0)
(6.11111 -2.3324e-14 0)
(6.11111 4.35742e-15 0)
(6.11111 -3.26723e-15 0)
(6.11111 -2.78115e-14 0)
(6.11111 -3.18422e-14 0)
(6.11111 -1.81898e-14 0)
(6.11111 -2.79582e-14 0)
(6.11111 -3.69697e-14 0)
(6.11111 -1.16053e-14 0)
(6.11111 3.51461e-14 0)
(6.11111 6.50046e-14 0)
(6.11111 9.57665e-14 0)
(6.11111 6.58747e-14 0)
(6.11111 6.36277e-14 0)
(6.11111 4.43043e-14 0)
(6.11111 3.59862e-14 0)
(6.11111 8.19375e-14 0)
(6.11111 1.08789e-13 0)
(6.11111 1.52413e-13 0)
(6.11111 1.59551e-13 0)
(6.11111 1.22268e-13 0)
(6.11111 3.33658e-14 0)
(6.11111 2.69413e-14 0)
(6.11111 4.06937e-14 0)
(6.11111 2.45909e-14 0)
(6.11111 1.41658e-14 0)
(6.11111 -1.49126e-14 0)
(6.11111 -8.87153e-14 0)
(6.11111 -7.99305e-14 0)
(6.11111 4.26207e-14 0)
(6.11111 6.5598e-14 0)
(6.11111 7.67299e-14 0)
(6.11111 6.04804e-14 0)
(6.11111 1.85765e-14 0)
(6.11111 -4.0307e-14 0)
(6.11111 -4.03003e-14 0)
(6.11111 4.48277e-14 0)
(6.11111 7.7308e-14 0)
(6.11111 4.00402e-15 0)
(6.11111 -9.635e-15 0)
(6.11111 -2.5001e-14 0)
(6.11111 -4.32575e-14 0)
(6.11111 -4.53878e-14 0)
(6.11111 -6.94887e-14 0)
(6.11111 -1.09242e-13 0)
(6.11111 -1.342e-13 0)
(6.11111 -1.19544e-13 0)
(6.11111 -8.70417e-14 0)
(6.11111 -2.17271e-14 0)
(6.11111 -1.82398e-14 0)
(6.11111 -2.38541e-14 0)
(6.11111 -6.22841e-14 0)
(6.11111 -7.22925e-14 0)
(6.11111 1.3669e-14 0)
(6.11111 8.07573e-14 0)
(6.11111 1.45682e-13 0)
(6.11111 1.82088e-13 0)
(6.11111 1.37247e-13 0)
(6.11111 7.18857e-14 0)
(6.11111 5.70298e-14 0)
(6.11111 4.76216e-14 0)
(6.11111 7.75401e-14 0)
(6.11111 1.11399e-13 0)
(6.11111 9.80903e-14 0)
(6.11111 1.83265e-14 0)
(6.11111 1.08952e-14 0)
(6.11111 6.40777e-15 0)
(6.11111 -3.2639e-15 0)
(6.11111 -4.6398e-14 0)
(6.11111 2.73347e-14 0)
(6.11111 6.08905e-14 0)
(6.11111 6.24341e-14 0)
(6.11111 9.87504e-15 0)
(6.11111 -7.37794e-15 0)
(6.11111 -1.08719e-14 0)
(6.11111 -8.20142e-16 0)
(6.11111 8.56615e-14 0)
(6.11111 1.88603e-13 0)
(6.11111 4.36742e-16 0)
(6.11111 1.64162e-14 0)
(6.11111 3.53728e-15 0)
(6.11111 -2.86249e-14 0)
(6.11111 -2.14937e-14 0)
(6.11111 1.30523e-14 0)
(6.11111 7.67132e-15 0)
(6.11111 -5.08088e-14 0)
(6.11111 -6.31442e-14 0)
(6.11111 -7.06589e-14 0)
(6.11111 -5.89502e-14 0)
(6.11111 -4.52678e-14 0)
(6.11111 -6.01837e-14 0)
(6.11111 -8.73151e-14 0)
(6.11111 -9.32694e-14 0)
(6.11111 -1.26912e-13 0)
(6.11111 -8.40245e-14 0)
(6.11111 -2.45076e-14 0)
(6.11111 -3.4836e-14 0)
(6.11111 -8.92921e-14 0)
(6.11111 -1.5535e-13 0)
(6.11111 -1.59344e-13 0)
(6.11111 -1.24525e-13 0)
(6.11111 -1.38357e-15 0)
(6.11111 4.36742e-14 0)
(6.11111 -7.40061e-14 0)
(6.11111 -1.82695e-13 0)
(6.11111 -2.1135e-13 0)
(6.11111 -2.01722e-13 0)
(6.11111 -1.62575e-13 0)
(6.11111 -5.65398e-14 0)
(6.11111 2.17171e-14 0)
(6.11111 3.08487e-14 0)
(6.11111 -5.33759e-14 0)
(6.11111 -1.17984e-13 0)
(6.11111 -1.07155e-13 0)
(6.11111 4.9902e-14 0)
(6.11111 9.83403e-14 0)
(6.11111 1.74764e-13 0)
(6.11111 2.15378e-13 0)
(6.11111 2.43042e-15 0)
(6.11111 3.35525e-14 0)
(6.11111 4.99453e-14 0)
(6.11111 5.5723e-14 0)
(6.11111 5.89902e-14 0)
(6.11111 3.75331e-14 0)
(6.11111 1.45058e-14 0)
(6.11111 5.9577e-15 0)
(6.11111 2.22138e-14 0)
(6.11111 3.69731e-14 0)
(6.11111 2.29073e-14 0)
(6.11111 3.01719e-14 0)
(6.11111 3.01285e-14 0)
(6.11111 2.86616e-14 0)
(6.11111 -7.38794e-15 0)
(6.11111 -1.02831e-13 0)
(6.11111 -1.64285e-13 0)
(6.11111 -1.26415e-13 0)
(6.11111 -1.1579e-13 0)
(6.11111 -1.05575e-13 0)
(6.11111 -1.32746e-13 0)
(6.11111 -1.09986e-13 0)
(6.11111 -8.74951e-14 0)
(6.11111 -8.75651e-14 0)
(6.11111 -1.04238e-13 0)
(6.11111 -1.40508e-13 0)
(6.11111 -1.98981e-13 0)
(6.11111 -2.55431e-13 0)
(6.11111 -2.60865e-13 0)
(6.11111 -1.51966e-13 0)
(6.11111 6.42911e-14 0)
(6.11111 1.30619e-13 0)
(6.11111 8.2771e-14 0)
(6.11111 2.1157e-14 0)
(6.11111 2.5341e-14 0)
(6.11111 4.94852e-14 0)
(6.11111 6.44611e-14 0)
(6.11111 6.36043e-14 0)
(6.11111 6.18707e-14 0)
(6.11111 9.30228e-14 0)
(6.11111 2.60045e-15 0)
(6.11111 3.33391e-16 0)
(6.11111 1.03751e-14 0)
(6.11111 -5.5943e-15 0)
(6.11111 -2.62479e-14 0)
(6.11111 -6.47512e-14 0)
(6.11111 -5.89835e-14 0)
(6.11111 -4.11338e-14 0)
(6.11111 2.17538e-14 0)
(6.11111 2.09703e-14 0)
(6.11111 1.50126e-14 0)
(6.11111 1.32973e-13 0)
(6.11111 1.57454e-13 0)
(6.11111 9.92171e-14 0)
(6.11111 2.60212e-14 0)
(6.11111 -1.87766e-14 0)
(6.11111 -1.21368e-13 0)
(6.11111 -1.58694e-13 0)
(6.11111 -1.29216e-13 0)
(6.11111 -7.26492e-14 0)
(6.11111 -6.49679e-14 0)
(6.11111 -9.84803e-14 0)
(6.11111 -1.35907e-13 0)
(6.11111 -1.65285e-13 0)
(6.11111 -1.66545e-13 0)
(6.11111 -1.1441e-13 0)
(6.11111 -1.29389e-14 0)
(6.11111 3.33391e-16 0)
(6.11111 -2.83382e-15 0)
(6.11111 1.93033e-14 0)
(6.11111 3.40692e-14 0)
(6.11111 5.73632e-14 0)
(6.11111 6.5678e-14 0)
(6.11111 6.35143e-14 0)
(6.11111 9.93572e-14 0)
(6.11111 1.09942e-13 0)
(6.11111 5.9587e-14 0)
(6.11111 3.44793e-14 0)
(6.11111 7.61265e-14 0)
(6.11111 1.08391e-13 0)
(6.11111 -1.77031e-15 0)
(6.11111 -2.95151e-14 0)
(6.11111 -6.96887e-14 0)
(6.11111 -5.08488e-14 0)
(6.11111 -6.51479e-14 0)
(6.11111 -6.46412e-14 0)
(6.11111 -3.78565e-14 0)
(6.11111 -1.78031e-15 0)
(6.11111 1.48292e-14 0)
(6.11111 4.33675e-14 0)
(6.11111 6.38977e-14 0)
(6.11111 3.09287e-14 0)
(6.11111 -3.68064e-15 0)
(6.11111 8.92154e-15 0)
(6.11111 3.88067e-15 0)
(6.11111 -9.25927e-14 0)
(6.11111 -1.22281e-13 0)
(6.11111 -1.31863e-13 0)
(6.11111 -1.10396e-13 0)
(6.11111 -5.36026e-14 0)
(6.11111 -4.87284e-14 0)
(6.11111 -8.07573e-14 0)
(6.11111 -7.46296e-14 0)
(6.11111 9.95505e-15 0)
(6.11111 1.76197e-14 0)
(6.11111 -1.23288e-14 0)
(6.11111 1.02718e-14 0)
(6.11111 1.05652e-13 0)
(6.11111 9.40629e-14 0)
(6.11111 9.8217e-14 0)
(6.11111 1.3749e-14 0)
(6.11111 -9.77502e-15 0)
(6.11111 2.7208e-14 0)
(6.11111 3.67964e-14 0)
(6.11111 2.28239e-14 0)
(6.11111 -1.3559e-14 0)
(6.11111 -2.78515e-14 0)
(6.11111 1.27655e-14 0)
(6.11111 5.16189e-14 0)
(6.11111 4.72577e-14 0)
(6.11111 6.46778e-15 0)
(6.11111 3.77399e-15 0)
(6.11111 2.38975e-14 0)
(6.11111 5.13289e-14 0)
(6.11111 9.36362e-14 0)
(6.11111 1.3761e-13 0)
(6.11111 1.08039e-13 0)
(6.11111 8.59615e-14 0)
(6.11111 6.68849e-14 0)
(6.11111 7.44595e-14 0)
(6.11111 6.5558e-14 0)
(6.11111 5.2309e-15 0)
(6.11111 -5.27624e-14 0)
(6.11111 -5.91235e-14 0)
(6.11111 -5.51595e-14 0)
(6.11111 2.20838e-14 0)
(6.11111 9.8627e-14 0)
(6.11111 1.34483e-13 0)
(6.11111 1.38957e-13 0)
(6.11111 6.45245e-14 0)
(6.11111 4.16905e-14 0)
(6.11111 4.13305e-14 0)
(6.11111 1.42411e-13 0)
(6.11111 1.9297e-13 0)
(6.11111 1.58621e-13 0)
(6.11111 8.44112e-14 0)
(6.11111 9.34195e-14 0)
(6.11111 1.33053e-13 0)
(6.11111 6.39844e-14 0)
(6.11111 -5.69632e-14 0)
(6.11111 -6.75883e-14 0)
(6.11111 -1.65028e-14 0)
(6.11111 7.38227e-14 0)
(6.11111 1.7349e-13 0)
(6.11111 1.1757e-13 0)
(6.11111 4.67047e-14 0)
(6.11111 6.49746e-14 0)
(6.11111 5.55496e-14 0)
(6.11111 -2.75581e-14 0)
(6.11111 -3.29948e-14 0)
(6.11111 4.46744e-15 0)
(6.11111 1.16087e-14 0)
(6.11111 2.8735e-14 0)
(6.11111 1.46692e-14 0)
(6.11111 -2.80048e-16 0)
(6.11111 1.7323e-14 0)
(6.11111 7.16557e-14 0)
(6.11111 6.93486e-14 0)
(6.11111 -1.7603e-14 0)
(6.11111 -6.76517e-14 0)
(6.11111 -9.62166e-14 0)
(6.11111 -9.92405e-14 0)
(6.11111 -1.01034e-13 0)
(6.11111 -1.01841e-13 0)
(6.11111 -4.11504e-14 0)
(6.11111 6.00037e-14 0)
(6.11111 1.06772e-13 0)
(6.11111 1.56244e-13 0)
(6.11111 1.51389e-13 0)
(6.11111 1.21451e-13 0)
(6.11111 1.76747e-13 0)
(6.11111 2.34871e-13 0)
(6.11111 2.35427e-13 0)
(6.11111 2.00125e-13 0)
(6.11111 2.06652e-13 0)
(6.11111 2.36951e-13 0)
(6.11111 1.93533e-13 0)
(6.11111 1.70613e-13 0)
(6.11111 8.23376e-14 0)
(6.11111 1.10952e-14 0)
(6.11111 -3.6483e-14 0)
(6.11111 -1.44692e-15 0)
(6.11111 8.58448e-14 0)
(6.11111 1.65802e-13 0)
(6.11111 1.54417e-13 0)
(6.11111 1.65709e-13 0)
(6.11111 1.02151e-13 0)
(6.11111 5.11822e-14 0)
(6.11111 5.20757e-15 0)
(6.11111 -3.68774e-14 0)
(6.11111 5.66765e-17 0)
(6.11111 6.73116e-15 0)
(6.11111 -2.3014e-14 0)
(6.11111 -8.48013e-14 0)
(6.11111 -9.06557e-14 0)
(6.11111 -9.42663e-14 0)
(6.11111 -6.14273e-14 0)
(6.11111 -4.38309e-14 0)
(6.11111 -5.08655e-14 0)
(6.11111 -8.40945e-14 0)
(6.11111 -8.81252e-14 0)
(6.11111 -1.09009e-13 0)
(6.11111 -1.10742e-13 0)
(6.11111 -3.23923e-14 0)
(6.11111 6.74783e-15 0)
(6.11111 5.34826e-14 0)
(6.11111 9.92371e-14 0)
(6.11111 8.63349e-14 0)
(6.11111 1.09972e-13 0)
(6.11111 1.82465e-13 0)
(6.11111 2.07116e-13 0)
(6.11111 2.07309e-13 0)
(6.11111 1.83838e-13 0)
(6.11111 1.73083e-13 0)
(6.11111 1.7456e-13 0)
(6.11111 1.69329e-13 0)
(6.11111 1.19471e-13 0)
(6.11111 4.79449e-14 0)
(6.11111 3.87867e-14 0)
(6.11111 6.28842e-14 0)
(6.11111 6.91186e-14 0)
(6.11111 5.84934e-14 0)
(6.11111 6.87085e-14 0)
(6.11111 7.41561e-14 0)
(6.11111 1.3513e-13 0)
(6.11111 1.57204e-13 0)
(6.11111 9.13391e-14 0)
(6.11111 5.35693e-14 0)
(6.11111 5.33992e-14 0)
(6.11111 2.70619e-14 0)
(6.11111 -2.02535e-14 0)
(6.11111 -1.951e-14 0)
(6.11111 -2.0997e-14 0)
(6.11111 -2.43175e-14 0)
(6.11111 -1.29756e-14 0)
(6.11111 -7.88803e-15 0)
(6.11111 -2.82916e-14 0)
(6.11111 -1.31523e-14 0)
(6.11111 5.798e-14 0)
(6.11111 8.26143e-14 0)
(6.11111 8.07639e-14 0)
(6.11111 3.31191e-14 0)
(6.11111 -9.99173e-15 0)
(6.11111 -7.3546e-15 0)
(6.11111 1.70896e-14 0)
(6.11111 -4.00069e-15 0)
(6.11111 3.12187e-14 0)
(6.11111 1.06338e-13 0)
(6.11111 1.27715e-13 0)
(6.11111 6.00604e-14 0)
(6.11111 7.38461e-15 0)
(6.11111 -1.46259e-14 0)
(6.11111 -1.15453e-14 0)
(6.11111 5.68098e-15 0)
(6.11111 -1.82698e-14 0)
(6.11111 -4.53078e-15 0)
(6.11111 3.14854e-14 0)
(6.11111 1.04685e-15 0)
(6.11111 -7.88636e-14 0)
(6.11111 -2.67413e-14 0)
(6.11111 4.28274e-14 0)
(6.11111 4.25273e-14 0)
(6.11111 -1.88032e-15 0)
(6.11111 5.6063e-14 0)
(6.11111 1.01534e-13 0)
(6.11111 1.19117e-13 0)
(6.11111 3.90567e-14 0)
(6.11111 -3.0892e-14 0)
(6.11111 -2.4901e-14 0)
(6.11111 5.43809e-14 0)
(6.11111 -8.82819e-15 0)
(6.11111 -1.27455e-14 0)
(6.11111 2.47376e-14 0)
(6.11111 8.29543e-14 0)
(6.11111 8.8812e-14 0)
(6.11111 4.09137e-14 0)
(6.11111 1.5156e-14 0)
(6.11111 8.2881e-15 0)
(6.11111 2.76514e-14 0)
(6.11111 1.23678e-13 0)
(6.11111 1.3251e-13 0)
(6.11111 1.36534e-13 0)
(6.11111 6.86252e-14 0)
(6.11111 2.78948e-14 0)
(6.11111 9.36828e-15 0)
(6.11111 -3.22589e-14 0)
(6.11111 -2.26506e-14 0)
(6.11111 1.93867e-14 0)
(6.11111 -4.48411e-15 0)
(6.11111 -4.30408e-14 0)
(6.11111 -7.23525e-14 0)
(6.11111 -7.708e-14 0)
(6.11111 -1.10076e-13 0)
(6.11111 -1.57544e-13 0)
(6.11111 -1.65162e-13 0)
(6.11111 -1.5171e-13 0)
(6.11111 -1.04421e-13 0)
(6.11111 -4.65914e-14 0)
(6.11111 2.46809e-14 0)
(6.11111 7.37761e-14 0)
(6.11111 8.40545e-14 0)
(6.11111 1.98368e-14 0)
(6.11111 -5.33625e-14 0)
(6.11111 -4.21773e-14 0)
(6.11111 -3.21189e-14 0)
(6.11111 -5.39393e-14 0)
(6.11111 -3.40259e-14 0)
(6.11111 -6.21441e-14 0)
(6.11111 -4.63747e-14 0)
(6.11111 -3.21068e-14 0)
(6.11111 8.95155e-15 0)
(6.11111 3.13921e-14 0)
(6.11111 3.76098e-14 0)
(6.11111 2.94918e-14 0)
(6.11111 5.93436e-15 0)
(6.11111 -8.6715e-15 0)
(6.11111 -5.72432e-15 0)
(6.11111 -4.34742e-14 0)
(6.11111 -8.94688e-14 0)
(6.11111 -6.10739e-14 0)
(6.11111 1.13253e-14 0)
(6.11111 5.54129e-14 0)
(6.11111 7.98205e-14 0)
(6.11111 3.40059e-14 0)
(6.11111 2.11903e-14 0)
(6.11111 4.57146e-14 0)
(6.11111 6.41811e-14 0)
(6.11111 2.68446e-14 0)
(6.11111 -4.40843e-14 0)
(6.11111 -1.3555e-13 0)
(6.11111 -1.43471e-13 0)
(6.11111 -1.96537e-13 0)
(6.11111 -2.28136e-13 0)
(6.11111 -2.35937e-13 0)
(6.11111 -2.23275e-13 0)
(6.11111 -2.01278e-13 0)
(6.11111 -1.15747e-13 0)
(6.11111 -9.40296e-14 0)
(6.11111 2.23372e-16 0)
(6.11111 5.92369e-14 0)
(6.11111 4.08137e-14 0)
(6.11111 1.56694e-16 0)
(6.11111 1.10152e-14 0)
(6.11111 -2.66946e-14 0)
(6.11111 -7.25692e-14 0)
(6.11111 -7.66366e-14 0)
(6.11111 -5.90069e-14 0)
(6.11111 -7.13056e-14 0)
(6.11111 -7.72e-14 0)
(6.11111 -9.58501e-14 0)
(6.11111 -3.96735e-16 0)
(6.11111 -8.37478e-15 0)
(6.11111 -2.76781e-14 0)
(6.11111 -3.93335e-14 0)
(6.11111 -3.82799e-14 0)
(6.11111 -3.74298e-14 0)
(6.11111 -4.02369e-14 0)
(6.11111 -3.48527e-14 0)
(6.11111 -2.9015e-14 0)
(6.11111 -7.28793e-14 0)
(6.11111 -1.22338e-13 0)
(6.11111 -9.8317e-14 0)
(6.11111 -1.44025e-14 0)
(6.11111 4.83817e-14 0)
(6.11111 7.94037e-14 0)
(6.11111 7.84836e-14 0)
(6.11111 5.18623e-14 0)
(6.11111 6.56113e-15 0)
(6.11111 -6.5658e-14 0)
(6.11111 -1.10429e-13 0)
(6.11111 -1.27002e-13 0)
(6.11111 -1.51986e-13 0)
(6.11111 -1.1365e-13 0)
(6.11111 -9.21793e-14 0)
(6.11111 -7.38294e-14 0)
(6.11111 -6.75917e-14 0)
(6.11111 -2.32573e-14 0)
(6.11111 -1.58327e-14 0)
(6.11111 -1.82698e-15 0)
(6.11111 -1.03251e-14 0)
(6.11111 -4.17739e-14 0)
(6.11111 -6.45478e-14 0)
(6.11111 -8.07773e-14 0)
(6.11111 -1.50529e-13 0)
(6.11111 -1.79081e-13 0)
(6.11111 -8.53614e-14 0)
(6.11111 -9.34761e-14 0)
(6.11111 -1.24702e-13 0)
(6.11111 -1.30829e-13 0)
(6.11111 -1.01694e-13 0)
(6.11111 -7.45129e-15 0)
(6.11111 -4.50278e-14 0)
(6.11111 -5.47328e-14 0)
(6.11111 -2.43809e-14 0)
(6.11111 -9.77502e-15 0)
(6.11111 -3.32691e-14 0)
(6.11111 -2.63379e-14 0)
(6.11111 1.1722e-14 0)
(6.11111 9.82503e-15 0)
(6.11111 -4.2564e-14 0)
(6.11111 -7.38994e-14 0)
(6.11111 -8.54714e-14 0)
(6.11111 -4.95786e-14 0)
(6.11111 -4.39276e-14 0)
(6.11111 -1.05438e-13 0)
(6.11111 -1.52176e-13 0)
(6.11111 -1.68659e-13 0)
(6.11111 -2.25306e-13 0)
(6.11111 -1.77051e-13 0)
(6.11111 -8.94554e-14 0)
(6.11111 -5.05221e-14 0)
(6.11111 -1.45092e-14 0)
(6.11111 1.44525e-14 0)
(6.11111 1.93467e-14 0)
(6.11111 3.834e-16 0)
(6.11111 -2.99918e-14 0)
(6.11111 -3.88434e-14 0)
(6.11111 -1.47359e-14 0)
(6.11111 5.30458e-14 0)
(6.11111 8.62482e-14 0)
(6.11111 7.45995e-14 0)
(6.11111 1.84065e-14 0)
(6.11111 -4.4451e-14 0)
(6.11111 -4.87518e-14 0)
(6.11111 -1.03958e-13 0)
(6.11111 -1.47569e-13 0)
(6.11111 -1.29842e-13 0)
(6.11111 -8.38445e-14 0)
(6.11111 -2.75548e-14 0)
(6.11111 2.19421e-14 0)
(6.11111 1.19921e-14 0)
(6.11111 2.09636e-14 0)
(6.11111 1.61628e-14 0)
(6.11111 2.81882e-14 0)
(6.11111 1.957e-14 0)
(6.11111 2.83582e-14 0)
(6.11111 9.93038e-14 0)
(6.11111 1.15737e-13 0)
(6.11111 1.15417e-13 0)
(6.11111 8.89054e-14 0)
(6.11111 8.97622e-14 0)
(6.11111 4.97053e-14 0)
(6.11111 -1.87036e-13 0)
(6.11111 -3.39602e-13 0)
(6.11111 -3.52674e-13 0)
(6.11111 -3.47477e-13 0)
(6.11111 -2.82192e-13 0)
(6.11111 -2.07136e-13 0)
(6.11111 -1.35327e-13 0)
(6.11111 -8.49547e-14 0)
(6.11111 -7.28959e-14 0)
(6.11111 -2.42709e-14 0)
(6.11111 8.00472e-14 0)
(6.11111 9.99839e-14 0)
(6.11111 9.61433e-14 0)
(6.11111 7.90803e-14 0)
(6.11111 3.85033e-14 0)
(6.11111 1.41624e-14 0)
(6.11111 9.54832e-15 0)
(6.11111 2.63212e-14 0)
(6.11111 3.53428e-14 0)
(6.11111 8.95155e-15 0)
(6.11111 2.70713e-15 0)
(6.11111 1.5416e-14 0)
(6.11111 -9.78502e-15 0)
(6.11111 -5.19956e-14 0)
(6.11111 -9.93005e-14 0)
(6.11111 -8.33211e-14 0)
(6.11111 -2.56744e-14 0)
(6.11111 1.63937e-15 0)
(6.11111 1.3559e-14 0)
(6.11111 7.43628e-14 0)
(6.11111 6.56047e-14 0)
(6.11111 3.29023e-14 0)
(6.11111 3.95735e-14 0)
(6.11111 7.17791e-14 0)
(6.11111 6.77917e-14 0)
(6.11111 6.49612e-14 0)
(6.11111 6.27042e-14 0)
(6.11111 3.68297e-14 0)
(6.11111 3.13187e-14 0)
(6.11111 2.16137e-14 0)
(6.11111 -1.42891e-14 0)
(6.11111 -5.58763e-15 0)
(6.11111 -1.72596e-14 0)
(6.11111 -2.28906e-14 0)
(6.11111 -2.86383e-14 0)
(6.11111 2.80715e-15 0)
(6.11111 4.37776e-14 0)
(6.11111 8.83253e-14 0)
(6.11111 4.94919e-14 0)
(6.11111 -2.62712e-15 0)
(6.11111 -4.04903e-14 0)
(6.11111 1.24588e-14 0)
(6.11111 1.44475e-13 0)
(6.11111 1.62171e-13 0)
(6.11111 1.66579e-13 0)
(6.11111 -2.54911e-14 0)
(6.11111 -1.09446e-13 0)
(6.11111 -1.14173e-13 0)
(6.11111 -1.25975e-13 0)
(6.11111 -1.00091e-13 0)
(6.11111 -4.18406e-15 0)
(6.11111 8.93821e-15 0)
(6.11111 2.14537e-14 0)