/*--------------------------------*- C++ -*----------------------------------*\
| =========                 |                                                 |
| \\      /  F ield         | OpenFOAM: The Open Source CFD Toolbox           |
|  \\    /   O peration     | Version:  2206                                  |
|   \\  /    A nd           | Website:  www.openfoam.com                      |
|    \\/     M anipulation  |                                                 |
\*---------------------------------------------------------------------------*/
FoamFile
{
    version     2.0;
    format      ascii;
    arch        "LSB;label=32;scalar=64";
    class       volScalarField;
    location    "0.08";
    object      p;
}
// * * * * * * * * * * * * * * * * * * * * * * * * * * * * * * * * * * * * * //

dimensions      [1 -1 -2 0 0 0 0];

internalField   nonuniform List<scalar> 
4800
(
1
1
1
1
1
1
1
1
1
1
1
1
1
1
1
1
1
1
1
1
1
1
1
1
1
1
1
1
1
1
1
1
1
1
1
1
1
1
1
1
1
1
1
1
1
1
1
1
1
1
1
1
1
1
1
1
1
1
1
1
1
1
1
1
1
1
1
1
1
1
1
1
1
1
1
1
1
1
1
1
1
1
1
1
1
1
1
1
1
1
1
1
1
1
1
1
1
1
1
1
1
1
1
1
1
1
1
1
1
1
1
1
1
1
1
1
1
1
1
1
1
1
1
1
1
1
1
1
1
1
1
1
1
1
1
1
1
1
1
1
1
1
1
1
1
1
1
1
1
1
1
1
1
1
1
1
1
1
1
1
1
1
1
1
1
1
1
1
1
1
1
1
1
1
1
1
1
1
1
1
1
1
1
1
1
1
1
1
1
1
1
1
1
1
1
1
1
1
1
1
1
1
1
1
1
1
1
1
1
1
1
1
1
1
1
1
1
1
1
1
1
1
1
1
1
1
1
1
1
1
1
1
1
1
1
1
1
1
1
1
1
1
1
1
1
1
1
1
1
1
1
1
1
1
1
1
1
1
1
1
1
1
1
1
1
1
1
1
1
1
1
1
1
1
1
1
1
1
1
1
1
1
1
1
1
1
1
1
1
1
1
1
1
1
1
1
1
1
1
1
1
1
1
1
1
1
1
1
1
1
1
1
1
1
1
1
1
1
1
1
1
1
1
1
1
1
1
1
1
1
1
1
1
1
1
1
1
1
1
1
1
1
1
1
1
1
1
1
1
1
1
1
1
1
1
1
1
1
1
1
1
1
1
1
1
1
1
1
1
1
1
1
1
1
1
1
1
1
1
1
1
1
1
1
1
1
1
1
1
1
1
1
1
1
1
1
1
1
1
1
1
1
1
1
1
1
1
1
1
1
1
1
1
1
1
1
1
1
1
1
1
1
1
1
1
1
1
1
1
1
1
1
1
1
1
1
1
1
1
1
1
1
1
1
1
1
1
1
1
1
1
1
1
1
1
1
1
1
1
1
1
1
1
1
1
1
1
1
1
1
1
1
1
1
1
1
1
1
1
1
1
1
1
1
1
1
1
1
1
1
1
1
1
1
1
1
1
1
1
1
1
1
1
1
1
1
1
1
1
1
1
1
1
1
1
1
1
1
1
1
1
1
1
1
1
1
1
1
1
1
1
1
1
1
1
1
1
1
1
1
1
1
1
1
1
1
1
1
1
1
1
1
1
1
1
1
1
1
1
1
1
1
1
1
1
1
1
1
1
1
1
1
1
1
1
1
1
1
1
1
1
1
1
1
1
1
1
1
1
1
1
1
1
1
1
1
1
1
1
1
1
1
1
1
1
1
1
1
1
1
1
1
1
1
1
1
1
1
1
1
1
1
1
1
1
1
1
1
1
1
1
1
1
1
1
1
1
1
1
1
1
1
1
1
1
1
1
1
1
1
1
1
1
1
1
1
1
1
1
1
1
1
1
1
1
1
1
1
1
1
1
1
1
1
1
1
1
1
1
1
1
1
1
1
1
1
1
1
1
1
1
1
1
1
1
1
1
1
1
1
1
1
1
1
1
1
1
1
1
1
1
1
1
1
1
1
1
1
1
1
1
1
1
1
1
1
1
1
1
1
1
1
1
1
1
1
1
1
1
1
1
1
1
1
1
1
1
1
1
1
1
1
1
1
1
1
1
1
1
1
1
1
1
1
1
1
1
1
1
1
1
1
1
1
1
1
1
1
1
1
1
1
1
1
1
1
1
1
1
1
1
1
1
1
1
1
1
1
1
1
1
1
1
1
1
1
1
1
1
1
1
1
1
1
1
1
1
1
1
1
1
1
1
1
1
1
1
1
1
1
1
1
1
1
1
1
1
1
1
1
1
1
1
1
1
1
1
1
1
1
1
1
1
1
1
1
1
1
1
1
1
1
1
1
1
1
1
1
1
1
1
1
1
1
1
1
1
1
1
1
1
1
1
1
1
1
1
1
1
1
1
1
1
1
1
1
1
1
1
1
1
1
1
1
1
1
1
1
1
1
1
1
1
1
1
1
1
1
1
1
1
1
1
1
1
1
1
1
1
1
1
1
1
1
1
1
1
1
1
1
1
1
1
1
1
1
1
1
1
1
1
1
1
1
1
1
1
1
1
1
1
1
1
1
1
1
1
1
1
1
1
1
1
1
1
1
1
1
1
1
1
1
1
1
1
1
1
1
1
1
1
1
1
1
1
1
1
1
1
1
1
1
1
1
1
1
1
1
1
1
1
1
1
1
1
1
1
1
1
1
1
1
1
1
1
1
1
1
1
1
1
1
1
1
1
1
1
1
1
1
1
1
1
1
1
1
1
1
1
1
1
1
1
1
1
1
1
1
1
1
1
1
1
1
1
1
1
1
1
1
1
1
1
1
1
1
1
1
1
1
1
1
1
1
1
1
1
1
1
1
1
1
1
1
1
1
1
1
1
1
1
1
1
1
1
1
1
1
1
1
1
1
1
1
1
1
1
1
1
1
1
1
1
1
1
1
1
1
1
1
1
1
1
1
1
1
1
1
1
1
1
1
1
1
1
1
1
1
1
1
1
1
1
1
1
1
1
1
1
1
1
1
1
1
1
1
1
1
1
1
1
1
1
1
1
1
1
1
1
1
1
1
1
1
1
1
1
1
1
1
1
1
1
1
1
1
1
1
1
1
1
1
1
1
1
1
1
1
1
1
1
1
1
1
1
1
1
1
1
1
1
1
1
1
1
1
1
1
1
1
1
1
1
1
1
1
1
1
1
1
1
1
1
1
1
1
1
1
1
1
1
1
1
1
1
1
1
1
1
1
1
1
1
1
1
1
1
1
1
1
1
1
1
1
1
1
1
1
1
1
1
1
1
1
1
1
1
1
1
1
1
1
1
1
1
1
1
1
1
1
1
1
1
1
1
1
1
1
1
1
1
1
1
1
1
1
1
1
1
1
1
1
1
1
1
1
1
1
1
1
1
1
1
1
1
1
1
1
1
1
1
1
1
1
1
1
1
1
1
1
1
1
1
1
1
1
1
1
1
1
1
1
1
1
1
1
1
1
1
1
1
1
1
1
1
1
1
1
1
1
1
1
1
1
1
1
1
1
1
1
1
1
1
1
1
1
1
1
1
1
1
1
1
1
1
1
1
1
1
1
1
1
1
1
1
1
1
1
1
1
1
1
1
1
1
1
1
1
1
1
1
1
1
1
1
1
1
1
1
1
1
1
1
1
1
1
1
1
1
1
1
1
1
1
1
1
1
1
1
1
1
1
1
1
1
1
1
1
1
1
1
1
1
1
1
1
1
1
1
1
1
1
1
1
1
1
1
1
1
1
1
1
1
1
1
1
1
1
1
1
1
1
1
1
1
1
1
1
1
1
1
1
1
1
1
1
1
1
1
1
1
1
1
1
1
1
1
1
1
1
1
1
1
1
1
1
1
1
1
1
1
1
1
1
1
1
1
1
1
1
1
1
1
1
1
1
1
1
1
1
1
1
1
1
1
1
1
1
1
1
1
1
1
1
1
1
1
1
1
1
1
1
1
1
1
1
1
1
1
1
1
1
1
1
1
1
1
1
1
1
1.26157
1.67478
2.1988
2.73412
3.28206
3.97678
4.72799
5.12801
5.46711
6.15353
6.72438
6.68727
6.74844
6.76384
6.68277
6.38372
5.857
5.3412
5.0173
4.77447
4.48795
4.39884
4.41388
4.42111
4.39974
4.41884
4.4765
4.5739
4.66079
4.67216
4.66048
4.64947
4.66047
4.68975
4.69744
4.69132
4.68662
4.70532
4.7542
4.77898
4.78097
4.77302
4.74911
4.72219
4.69894
4.68669
4.68387
4.68706
4.70003
4.73573
4.77301
4.79733
4.80453
4.80119
4.7876
4.7634
4.72335
4.68755
4.67368
4.67392
4.68673
4.72313
4.77823
4.80886
4.81105
4.80138
4.77387
4.74324
4.72053
4.6932
4.65384
4.60021
4.56072
4.55258
4.55381
4.56904
4.57745
4.57508
4.57011
4.5481
1
0.999345
0.998896
1.0382
1.10449
1.172
1.34818
1.70062
2.02403
2.35166
2.90076
3.3682
3.78464
4.21388
4.58044
4.71114
4.73611
5.04454
5.21847
5.18632
5.03565
4.88646
4.87594
4.85901
4.77594
4.6796
4.61601
4.60143
4.60483
4.60342
4.60383
4.61116
4.63812
4.6819
4.692
4.68952
4.68119
4.68377
4.69931
4.72025
4.73544
4.74087
4.73906
4.73576
4.74036
4.74481
4.74185
4.72969
4.71647
4.71233
4.71542
4.73019
4.75264
4.76803
4.76907
4.76129
4.75435
4.74919
4.73875
4.73414
4.73724
4.7489
4.75545
4.75335
4.74907
4.73398
4.72451
4.72428
4.71876
4.70466
4.67504
4.63517
4.59142
4.56277
4.55535
4.55406
4.55839
4.56238
4.55987
4.54293
1
1
1
1
1
0.999997
0.999999
0.999693
1.00147
1.01208
1.07396
1.24546
1.4759
1.97135
2.6386
3.48055
4.34506
4.97636
5.49014
5.48391
5.42661
5.36856
5.30233
5.22239
5.10235
4.83542
4.6115
4.5888
4.59997
4.59434
4.59186
4.60623
4.63879
4.68659
4.70814
4.70431
4.69835
4.68513
4.67128
4.67245
4.67735
4.69364
4.73096
4.76224
4.77399
4.77591
4.77189
4.75951
4.73965
4.71453
4.70195
4.6994
4.69958
4.70959
4.73764
4.76514
4.77793
4.78096
4.77775
4.77595
4.77687
4.77721
4.76661
4.74599
4.71999
4.69278
4.68558
4.68971
4.70862
4.70927
4.69234
4.66014
4.61022
4.57145
4.55747
4.5475
4.54364
4.54405
4.55003
4.54198
1
1
1
1
1
1
1
1
1
1
1
1
0.999323
1.00249
1.03417
1.17479
1.613
2.21688
3.20351
3.93097
4.42503
4.9228
4.99428
5.01072
4.97731
4.97636
4.91913
4.8704
4.85248
4.81113
4.71989
4.71088
4.6919
4.67767
4.67127
4.65443
4.64862
4.64241
4.64023
4.64624
4.65011
4.6599
4.6928
4.74809
4.78906
4.79997
4.7979
4.7845
4.75613
4.72359
4.70811
4.70078
4.6941
4.69244
4.70331
4.72995
4.75431
4.77409
4.7922
4.80153
4.8028
4.79539
4.77966
4.755
4.71903
4.69152
4.68368
4.68412
4.69133
4.69851
4.69032
4.66572
4.61858
4.56213
4.52842
4.51939
4.5163
4.51663
4.53116
4.54126
1
1
1
1
1
1
1
1
1
1
1
1
1
1
1
1
0.999096
1.00821
1.1026
1.49148
1.98255
2.72877
3.50376
4.26659
4.93859
5.04894
5.16905
5.16509
5.1107
5.02212
4.8792
4.7029
4.63947
4.66259
4.68255
4.67805
4.66355
4.64608
4.63956
4.63647
4.63262
4.63483
4.65924
4.6999
4.73531
4.75616
4.76792
4.77034
4.7569
4.72972
4.72094
4.71973
4.72076
4.71848
4.71552
4.71791
4.72405
4.73161
4.74391
4.76272
4.78048
4.78535
4.77932
4.76312
4.74765
4.72985
4.71117
4.70439
4.70031
4.69917
4.6863
4.65551
4.60987
4.5551
4.51815
4.50549
4.50078
4.49974
4.51293
4.53665
1
1
1
1
1
1
1
1
1
1
1
1
1
1
1
1
1
0.999999
1
0.999338
1.00253
1.05362
1.3213
1.74362
2.5051
3.26411
4.04375
4.61745
4.68184
4.76107
4.67196
4.67156
4.70665
4.78083
4.81594
4.80889
4.78209
4.74638
4.71787
4.68975
4.65111
4.62806
4.63703
4.65672
4.67583
4.69573
4.71376
4.72745
4.7389
4.75316
4.76722
4.77598
4.77899
4.7753
4.75695
4.73321
4.72063
4.7119
4.70739
4.70866
4.72022
4.74769
4.77167
4.77803
4.77711
4.7687
4.7521
4.73312
4.7226
4.70978
4.6863
4.64851
4.59781
4.54812
4.51818
4.50198
4.49294
4.49092
4.49881
4.52238
1
1
1
1
1
1
1
1
1
1
1
1
1
1
1
1
1
1
1
1
1
1
0.999756
1.00018
1.04069
1.23544
1.56817
2.24949
3.01844
3.88663
4.41709
4.63629
4.88183
4.88877
4.86485
4.86156
4.84277
4.80112
4.74271
4.69683
4.67353
4.66235
4.65048
4.64282
4.6405
4.64247
4.64721
4.6549
4.67593
4.71706
4.76864
4.79949
4.80838
4.80985
4.80601
4.77216
4.72315
4.69708
4.68602
4.68454
4.68887
4.7062
4.74113
4.77329
4.78395
4.78284
4.77163
4.75472
4.73366
4.70537
4.66884
4.62513
4.57733
4.54651
4.53112
4.517
4.50255
4.4962
4.49609
4.50651
1
1
1
1
1
1
1
1
1
1
1
1
1
1
1
1
1
1
1
1
1
1
1
1
1
0.999973
0.999431
1.02822
1.17319
1.4493
2.13742
2.91526
3.84117
4.18995
4.38673
4.55527
4.57024
4.62776
4.69605
4.74321
4.79024
4.79952
4.78134
4.74719
4.71405
4.67387
4.63177
4.61966
4.62407
4.64475
4.69026
4.75884
4.80455
4.81146
4.80896
4.80618
4.79317
4.76524
4.73144
4.70437
4.70006
4.70681
4.71944
4.73912
4.76376
4.77086
4.76771
4.74988
4.7144
4.67499
4.63334
4.58929
4.57556
4.57288
4.57028
4.56243
4.54516
4.51791
4.50808
4.50371
1
1
1
1
1
1
1
1
1
1
1
1
1
1
1
1
1
1
1
1
1
1
1
1
1
1
1
1
0.999968
0.9995
1.02517
1.14322
1.43696
2.09986
2.82824
3.63809
4.04757
4.43499
4.65858
4.71366
4.7752
4.82228
4.81906
4.79457
4.74797
4.71783
4.6783
4.63361
4.61372
4.61711
4.63552
4.6709
4.70645
4.73872
4.77071
4.79527
4.79973
4.79913
4.79839
4.78594
4.75933
4.73608
4.72699
4.72654
4.73673
4.74154
4.7361
4.717
4.68868
4.65018
4.59999
4.5761
4.57448
4.58437
4.59117
4.58874
4.58265
4.56506
4.52314
4.50387
1
1
1
1
1
1
1
1
1
1
1
1
1
1
1
1
1
1
1
1
1
1
1
1
1
1
1
1
1
1
1
0.999912
0.999799
1.0285
1.11766
1.3899
2.07392
2.85839
3.66386
3.96909
4.30047
4.56138
4.62466
4.66887
4.71102
4.78589
4.8011
4.77913
4.73593
4.69393
4.6625
4.64089
4.64284
4.656
4.67386
4.70573
4.75782
4.79903
4.81121
4.8119
4.80665
4.79831
4.78168
4.76084
4.74412
4.73437
4.7246
4.70724
4.68295
4.64559
4.57916
4.5527
4.54966
4.56371
4.58448
4.5889
4.58362
4.57519
4.55442
4.50131
1
1
1
1
1
1
1
1
1
1
1
1
1
1
1
1
1
1
1
1
1
1
1
1
1
1
1
1
1
1
1
1
0.999998
1
0.99986
1.00025
1.02954
1.12818
1.48553
2.1646
2.92743
3.65075
4.06089
4.3885
4.56992
4.71546
4.80528
4.81407
4.80732
4.79637
4.77291
4.73023
4.68389
4.65095
4.64266
4.65408
4.67891
4.70406
4.73553
4.76885
4.78942
4.79055
4.78547
4.77856
4.77708
4.77246
4.75889
4.7344
4.70452
4.65639
4.57897
4.5422
4.53295
4.52845
4.53185
4.54645
4.56487
4.56931
4.56042
4.53323
1
1
1
1
1
1
1
1
1
1
1
1
1
1
1
1
1
1
1
1
1
1
1
1
1
1
1
1
1
1
1
1
1
1
0.999999
0.999997
1.00001
0.999852
1.00212
1.04027
1.14861
1.58033
2.33669
3.19339
3.66156
4.05249
4.44027
4.66173
4.75403
4.76673
4.78768
4.81888
4.80555
4.76993
4.72509
4.69102
4.66954
4.66675
4.67487
4.69507
4.71343
4.72907
4.74488
4.76066
4.76926
4.77453
4.7717
4.76833
4.75712
4.72113
4.65045
4.57087
4.51904
4.50222
4.49927
4.49979
4.50806
4.53236
4.54947
4.53838
1
1
1
1
1
1
1
1
1
1
1
1
1
1
1
1
1
1
1
1
1
1
1
1
1
1
1
1
1
1
1
1
1
1
1
1
1
0.999998
0.999992
1.00002
0.999901
1.0062
1.05978
1.24322
1.78367
2.50661
3.37942
3.89325
4.26155
4.44186
4.63241
4.7742
4.81227
4.81476
4.80343
4.80033
4.78471
4.75159
4.70683
4.685
4.68441
4.69
4.69493
4.69997
4.70571
4.72599
4.75621
4.76805
4.76255
4.7379
4.7053
4.65654
4.58201
4.50869
4.47469
4.46788
4.46681
4.4726
4.50404
4.53358
1
1
1
1
1
1
1
1
1
1
1
1
1
1
1
1
1
1
1
1
1
1
1
1
1
1
1
1
1
1
1
1
1
1
1
1
1
1
1
1
0.999997
1
0.999959
1.0003
1.01735
1.0824
1.39357
2.15295
3.10789
3.65229
4.01805
4.37472
4.61763
4.70822
4.75886
4.78939
4.82752
4.82899
4.80549
4.77036
4.74441
4.72571
4.70546
4.68973
4.68581
4.68546
4.68734
4.69124
4.70865
4.71456
4.69516
4.66101
4.62626
4.58011
4.51187
4.45845
4.44932
4.45621
4.47624
4.52299
1
1
1
1
1
1
1
1
1
1
1
1
1
1
1
1
1
1
1
1
1
1
1
1
1
1
1
1
1
1
1
1
1
1
1
1
1
1
1
1
1
1
0.999999
0.999997
1.00001
0.999952
1.0032
1.05395
1.2265
1.75593
2.51173
3.44449
3.96799
4.28774
4.43471
4.57426
4.74038
4.8057
4.81342
4.80872
4.79544
4.80449
4.80981
4.79402
4.7574
4.71625
4.6819
4.65395
4.62504
4.6124
4.60844
4.61768
4.61372
4.59578
4.5737
4.52697
4.47078
4.4569
4.4641
4.496
1
1
1
1
1
1
1
1
1
1
1
1
1
1
1
1
1
1
1
1
1
1
1
1
1
1
1
1
1
1
1
1
1
1
1
1
1
1
1
1
1
1
1
1
1
0.999998
1
0.999987
1.00053
1.02056
1.10148
1.43733
2.27012
3.41701
3.9699
4.19
4.40166
4.61102
4.64851
4.66878
4.71358
4.77982
4.83691
4.83832
4.82958
4.82218
4.79135
4.71415
4.61775
4.55598
4.52792
4.52216
4.54554
4.59411
4.60075
4.58947
4.54307
4.48103
4.46717
4.47855
1
1
1
1
1
1
1
1
1
1
1
1
1
1
1
1
1
1
1
1
1
1
1
1
1
1
1
1
1
1
1
1
1
1
1
1
1
1
1
1
1
1
1
1
1
1
1
0.999999
0.999998
1
1.00005
1.00601
1.08717
1.3834
2.10517
3.02513
3.97414
4.36194
4.42985
4.46404
4.48009
4.56281
4.69009
4.78108
4.83226
4.85163
4.85073
4.82416
4.74404
4.60433
4.50827
4.48922
4.4857
4.51967
4.58316
4.58904
4.57499
4.52282
4.47485
4.47104
1
1
1
1
1
1
1
1
1
1
1
1
1
1
1
1
1
1
1
1
1
1
1
1
1
1
1
1
1
1
1
1
1
1
1
1
1
1
1
1
1
1
1
1
1
1
1
1
1
1
0.999999
0.999989
1.0001
1.00364
1.06627
1.27883
1.85748
2.83387
4.02888
4.48444
4.47209
4.51283
4.55067
4.55906
4.5994
4.70332
4.8108
4.8366
4.81643
4.74913
4.61083
4.48313
4.46377
4.46412
4.50159
4.57132
4.57804
4.55569
4.50098
4.47579
1
1
1
1
1
1
1
1
1
1
1
1
1
1
1
1
1
1
1
1
1
1
1
1
1
1
1
1
1
1
1
1
1
1
1
1
1
1
1
1
1
1
1
1
1
1
1
1
1
1
1
0.999999
1
0.999995
1.00007
1.00179
1.03575
1.23717
1.92675
2.93183
3.86826
4.57065
4.6626
4.60855
4.50264
4.49092
4.56863
4.74486
4.81479
4.79839
4.7269
4.56305
4.4509
4.43928
4.44842
4.52599
4.58651
4.58008
4.53393
4.48354
1
1
1
1
1
1
1
1
1
1
1
1
1
1
1
1
1
1
1
1
1
1
1
1
1
1
1
1
1
1
1
1
1
1
1
1
1
1
1
1
1
1
1
1
1
1
1
1
1
1
1
1
1
1
1
0.999997
1.00001
1.00174
1.0414
1.30166
1.92685
2.93126
4.00719
4.63452
4.66178
4.53153
4.4792
4.56033
4.74291
4.78231
4.74441
4.64708
4.49075
4.4343
4.43997
4.48797
4.56361
4.56999
4.54227
4.48482
1
1
1
1
1
1
1
1
1
1
1
1
1
1
1
1
1
1
1
1
1
1
1
1
1
1
1
1
1
1
1
1
1
1
1
1
1
1
1
1
1
1
1
1
1
1
1
1
1
1
1
1
1
1
1
1
1
0.999996
1.00003
1.00293
1.04885
1.29688
1.98735
3.18653
4.36166
4.57016
4.48311
4.47452
4.57245
4.71675
4.73491
4.70531
4.59599
4.49018
4.47111
4.47231
4.51502
4.54444
4.52869
4.47695
1
1
1
1
1
1
1
1
1
1
1
1
1
1
1
1
1
1
1
1
1
1
1
1
1
1
1
1
1
1
1
1
1
1
1
1
1
1
1
1
1
1
1
1
1
1
1
1
1
1
1
1
1
1
1
1
1
0.999999
0.999999
0.999995
1.00006
1.00322
1.06384
1.42771
2.35465
3.65842
4.35313
4.36345
4.43585
4.61078
4.72617
4.70428
4.6466
4.53493
4.46374
4.45544
4.4777
4.53628
4.54082
4.4923
1
1
1
1
1
1
1
1
1
1
1
1
1
1
1
1
1
1
1
1
1
1
1
1
1
1
1
1
1
1
1
1
1
1
1
1
1
1
1
1
1
1
1
1
1
1
1
1
1
1
1
1
1
1
1
1
1
1
1
0.999999
0.999999
0.999994
1.00018
1.00991
1.12645
1.63666
2.74453
3.85751
4.14542
4.39767
4.62891
4.66559
4.63709
4.55074
4.44175
4.41194
4.42976
4.51591
4.56635
4.53793
1
1
1
1
1
1
1
1
1
1
1
1
1
1
1
1
1
1
1
1
1
1
1
1
1
1
1
1
1
1
1
1
1
1
1
1
1
1
1
1
1
1
1
1
1
1
1
1
1
1
1
1
1
1
1
1
1
1
1
1
1
0.999999
0.999999
0.999994
1.00081
1.02328
1.20573
1.94795
3.04601
3.81558
4.38082
4.606
4.6197
4.58271
4.46556
4.35991
4.34842
4.40477
4.53264
4.54865
1
1
1
1
1
1
1
1
1
1
1
1
1
1
1
1
1
1
1
1
1
1
1
1
1
1
1
1
1
1
1
1
1
1
1
1
1
1
1
1
1
1
1
1
1
1
1
1
1
1
1
1
1
1
1
1
1
1
1
1
1
1
1
1
0.999998
1.00002
1.00277
1.05121
1.42651
2.27393
3.25977
4.01587
4.50156
4.56548
4.56577
4.48851
4.34169
4.32602
4.37967
4.50775
1
1
1
1
1
1
1
1
1
1
1
1
1
1
1
1
1
1
1
1
1
1
1
1
1
1
1
1
1
1
1
1
1
1
1
1
1
1
1
1
1
1
1
1
1
1
1
1
1
1
1
1
1
1
1
1
1
1
1
1
1
1
1
1
1
1
0.999996
1.00025
1.01132
1.1224
1.67245
2.64945
3.50544
4.21332
4.52199
4.52603
4.50926
4.35473
4.30417
4.38122
1
1
1
1
1
1
1
1
1
1
1
1
1
1
1
1
1
1
1
1
1
1
1
1
1
1
1
1
1
1
1
1
1
1
1
1
1
1
1
1
1
1
1
1
1
1
1
1
1
1
1
1
1
1
1
1
1
1
1
1
1
1
1
1
1
1
0.999999
0.999999
1
1.00147
1.02842
1.27787
2.00423
2.97029
3.75871
4.40872
4.49543
4.4898
4.34825
4.30332
1
1
1
1
1
1
1
1
1
1
1
1
1
1
1
1
1
1
1
1
1
1
1
1
1
1
1
1
1
1
1
1
1
1
1
1
1
1
1
1
1
1
1
1
1
1
1
1
1
1
1
1
1
1
1
1
1
1
1
1
1
1
1
1
1
1
1
1
1
0.999998
1.00009
1.00648
1.0757
1.48867
2.32191
3.26772
4.09793
4.4426
4.44625
4.37171
1
1
1
1
1
1
1
1
1
1
1
1
1
1
1
1
1
1
1
1
1
1
1
1
1
1
1
1
1
1
1
1
1
1
1
1
1
1
1
1
1
1
1
1
1
1
1
1
1
1
1
1
1
1
1
1
1
1
1
1
1
1
1
1
1
1
1
1
1
1
1
1
1.00063
1.01633
1.16845
1.75275
2.68502
3.65305
4.34407
4.4042
1
1
1
1
1
1
1
1
1
1
1
1
1
1
1
1
1
1
1
1
1
1
1
1
1
1
1
1
1
1
1
1
1
1
1
1
1
1
1
1
1
1
1
1
1
1
1
1
1
1
1
1
1
1
1
1
1
1
1
1
1
1
1
1
1
1
1
1
1
1
1
1
0.999999
1.00003
1.0028
1.04322
1.34162
2.10833
3.16426
4.09808
1
1
1
1
1
1
1
1
1
1
1
1
1
1
1
1
1
1
1
1
1
1
1
1
1
1
1
1
1
1
1
1
1
1
1
1
1
1
1
1
1
1
1
1
1
1
1
1
1
1
1
1
1
1
1
1
1
1
1
1
1
1
1
1
1
1
1
1
1
1
1
1
1
1
0.999998
1.00024
1.0098
1.12025
1.56925
3.02364
1
1
1
1
1
1
1
1
1
1
1
1
1
1
1
1
1
1
1
1
1
1
1
1
1
1
1
1
1
1
1
1
1
1
1
1
1
1
1
1
1
1
1
1
1
1
1
1
1
1
1
1
1
1
1
1
1
1
1
1
1
1
1
1
1
1
1
1
1
1
1
1
1
1
1
0.999999
1.00001
1.00171
1.02627
1.66852
1
1
1
1
1
1
1
1
1
1
1
1
1
1
1
1
1
1
1
1
1
1
1
1
1
1
1
1
1
1
1
1
1
1
1
1
1
1
1
1
1
1
1
1
1
1
1
1
1
1
1
1
1
1
1
1
1
1
1
1
1
1
1
1
1
1
1
1
1
1
1
1
1
1
1
1
1
0.999999
1.00023
1.07503
1
1
1
1
1
1
1
1
1
1
1
1
1
1
1
1
1
1
1
1
1
1
1
1
1
1
1
1
1
1
1
1
1
1
1
1
1
1
1
1
1
1
1
1
1
1
1
1
1
1
1
1
1
1
1
1
1
1
1
1
1
1
1
1
1
1
1
1
1
1
1
1
1
1
1
1
1
1
1
1.00241
1
1
1
1
1
1
1
1
1
1
1
1
1
1
1
1
1
1
1
1
1
1
1
1
1
1
1
1
1
1
1
1
1
1
1
1
1
1
1
1
1
1
1
1
1
1
1
1
1
1
1
1
1
1
1
1
1
1
1
1
1
1
1
1
1
1
1
1
1
1
1
1
1
1
1
1
1
1
1
1.00002
1
1
1
1
1
1
1
1
1
1
1
1
1
1
1
1
1
1
1
1
1
1
1
1
1
1
1
1
1
1
1
1
1
1
1
1
1
1
1
1
1
1
1
1
1
1
1
1
1
1
1
1
1
1
1
1
1
1
1
1
1
1
1
1
1
1
1
1
1
1
1
1
1
1
1
1
1
1
1
1
1
1
1
1
1
1
1
1
1
1
1
1
1
1
1
1
1
1
1
1
1
1
1
1
1
1
1
1
1
1
1
1
1
1
1
1
1
1
1
1
1
1
1
1
1
1
1
1
1
1
1
1
1
1
1
1
1
1
1
1
1
1
1
1
1
1
1
1
1
1
1
1
1
1
1
1
1
1
1
1
1
1
1
1
1
1
1
1
1
1
1
1
1
1
1
1
1
1
1
1
1
1
1
1
1
1
1
1
1
1
1
1
1
1
1
1
1
1
1
1
1
1
1
1
1
1
1
1
1
1
1
1
1
1
1
1
1
1
1
1
1
1
1
1
1
1
1
1
1
1
1
1
1
1
1
1
1
1
1
1
1
1
1
1
1
1
1
1
1
1
1
1
1
1
1
1
1
1
1
1
1
1
1
1
1
1
1
1
1
1
1
1
1
1
1
1
1
1
1
1
1
1
1
1
1
1
1
1
1
1
1
1
1
1
1
1
1
1
1
1
1
1
1
1
1
1
1
1
1
1
1
1
1
1
1
1
1
1
1
1
1
1
1
1
1
1
1
1
1
1
1
1
1
1
1
1
1
1
1
1
1
1
1
1
1
1
1
1
1
1
1
1
1
1
1
1
1
1
1
1
1
1
1
1
1
1
1
1
1
1
1
1
1
1
1
1
1
1
1
1
1
1
1
1
1
1
1
1
1
1
1
1
1
1
1
1
1
1
1
1
)
;

boundaryField
{
    inlet
    {
        type            fixedValue;
        value           uniform 1;
    }
    outlet
    {
        type            zeroGradient;
    }
    bottom
    {
        type            symmetryPlane;
    }
    top
    {
        type            symmetryPlane;
    }
    obstacle
    {
        type            zeroGradient;
    }
    defaultFaces
    {
        type            empty;
    }
}


// ************************************************************************* //
