/*--------------------------------*- C++ -*----------------------------------*\
| =========                 |                                                 |
| \\      /  F ield         | OpenFOAM: The Open Source CFD Toolbox           |
|  \\    /   O peration     | Version:  2206                                  |
|   \\  /    A nd           | Website:  www.openfoam.com                      |
|    \\/     M anipulation  |                                                 |
\*---------------------------------------------------------------------------*/
FoamFile
{
    version     2.0;
    format      ascii;
    arch        "LSB;label=32;scalar=64";
    class       volVectorField;
    location    "0.14";
    object      U;
}
// * * * * * * * * * * * * * * * * * * * * * * * * * * * * * * * * * * * * * //

dimensions      [0 1 -1 0 0 0 0];

internalField   nonuniform List<vector> 
4800
(
(4.85859 -5.88435e-15 0)
(4.85859 -2.41542e-14 0)
(4.85859 -1.28856e-14 0)
(4.85859 3.95402e-15 0)
(4.85859 4.21639e-14 0)
(4.85859 4.73015e-14 0)
(4.85859 1.95134e-14 0)
(4.85859 1.82898e-14 0)
(4.85859 2.32774e-14 0)
(4.85859 2.18071e-14 0)
(4.85859 1.45959e-14 0)
(4.85859 1.08719e-14 0)
(4.85859 1.89399e-14 0)
(4.85859 4.03003e-14 0)
(4.85859 1.07535e-13 0)
(4.85859 1.30416e-13 0)
(4.85859 1.40014e-13 0)
(4.85859 3.61462e-14 0)
(4.85859 -5.44694e-14 0)
(4.85859 -7.1509e-14 0)
(4.85859 -5.65898e-14 0)
(4.85859 -1.72063e-14 0)
(4.85859 -1.42025e-14 0)
(4.85859 -3.33624e-14 0)
(4.85859 -6.20307e-14 0)
(4.85859 -6.41811e-14 0)
(4.85859 -5.47461e-14 0)
(4.85859 -2.10803e-14 0)
(4.85859 5.55429e-15 0)
(4.85859 5.9557e-14 0)
(4.85859 4.67414e-14 0)
(4.85859 5.25591e-14 0)
(4.85859 7.98805e-14 0)
(4.85859 1.177e-13 0)
(4.85859 1.06002e-13 0)
(4.85859 1.03428e-13 0)
(4.85859 8.35578e-14 0)
(4.85859 7.69133e-14 0)
(4.85859 1.02148e-13 0)
(4.85859 7.85802e-14 0)
(4.85859 -7.33793e-15 0)
(4.85859 -1.21021e-15 0)
(4.85859 2.51377e-14 0)
(4.85859 6.52346e-14 0)
(4.85859 7.06889e-14 0)
(4.85859 3.82666e-14 0)
(4.85859 2.23405e-14 0)
(4.85859 -3.51394e-15 0)
(4.85859 1.56694e-16 0)
(4.85859 8.26143e-15 0)
(4.85859 1.91833e-14 0)
(4.85859 -4.19706e-14 0)
(4.85859 -3.06953e-14 0)
(4.85859 1.3299e-14 0)
(4.85859 6.9542e-14 0)
(4.85859 7.49696e-14 0)
(4.85859 5.2039e-14 0)
(4.85859 7.22391e-14 0)
(4.85859 7.86436e-14 0)
(4.85859 3.0712e-14 0)
(4.85859 -4.09071e-14 0)
(4.85859 -6.96554e-14 0)
(4.85859 -1.04098e-13 0)
(4.85859 -7.72067e-14 0)
(4.85859 -1.01161e-13 0)
(4.85859 -1.02394e-13 0)
(4.85859 -2.54144e-14 0)
(4.85859 1.80698e-15 0)
(4.85859 -3.21055e-15 0)
(4.85859 3.44293e-14 0)
(4.85859 4.03436e-14 0)
(4.85859 3.94635e-14 0)
(4.85859 1.02428e-13 0)
(4.85859 1.40274e-13 0)
(4.85859 1.20381e-13 0)
(4.85859 4.80583e-14 0)
(4.85859 4.58179e-14 0)
(4.85859 4.18339e-14 0)
(4.85859 1.1321e-13 0)
(4.85859 6.05562e-14 0)
(4.85859 2.43475e-14 0)
(4.85859 3.35158e-14 0)
(4.85859 1.85932e-14 0)
(4.85859 1.09552e-14 0)
(4.85859 -9.06823e-15 0)
(4.85859 -4.15572e-14 0)
(4.85859 -7.75801e-15 0)
(4.85859 2.61478e-14 0)
(4.85859 1.05051e-14 0)
(4.85859 -3.45693e-14 0)
(4.85859 -5.35459e-14 0)
(4.85859 -9.90738e-14 0)
(4.85859 -7.09122e-14 0)
(4.85859 -1.946e-14 0)
(4.85859 1.07852e-14 0)
(4.85859 -4.99286e-14 0)
(4.85859 -1.3681e-13 0)
(4.85859 -1.82452e-13 0)
(4.85859 -1.81028e-13 0)
(4.85859 -1.51156e-13 0)
(4.85859 -1.53733e-13 0)
(4.85859 -1.60304e-13 0)
(4.85859 -1.59611e-13 0)
(4.85859 -8.80519e-14 0)
(4.85859 5.96436e-15 0)
(4.85859 1.75697e-14 0)
(4.85859 3.13221e-14 0)
(4.85859 5.9587e-14 0)
(4.85859 -4.76416e-15 0)
(4.85859 -6.02871e-14 0)
(4.85859 -2.79015e-14 0)
(4.85859 -2.36674e-14 0)
(4.85859 -1.01418e-14 0)
(4.85859 -3.03119e-14 0)
(4.85859 -9.56499e-15 0)
(4.85859 -3.03719e-15 0)
(4.85859 -6.30776e-15 0)
(4.85859 -1.5356e-14 0)
(4.85859 3.79866e-14 0)
(4.85859 2.56506e-14 0)
(4.85859 6.45111e-15 0)
(4.85859 3.76732e-16 0)
(4.85859 -3.79999e-14 0)
(4.85859 -6.14273e-14 0)
(4.85859 -6.11372e-14 0)
(4.85859 -5.82934e-14 0)
(4.85859 -3.34491e-14 0)
(4.85859 4.29874e-14 0)
(4.85859 8.8652e-14 0)
(4.85859 2.58978e-14 0)
(4.85859 1.99701e-15 0)
(4.85859 2.1137e-15 0)
(4.85859 1.06518e-14 0)
(4.85859 6.02104e-15 0)
(4.85859 2.20371e-15 0)
(4.85859 -1.3699e-14 0)
(4.85859 1.29722e-14 0)
(4.85859 -6.63948e-14 0)
(4.85859 -1.01047e-13 0)
(4.85859 -8.65916e-14 0)
(4.85859 -2.60912e-14 0)
(4.85859 -2.09169e-14 0)
(4.85859 -4.02436e-14 0)
(4.85859 -1.29326e-13 0)
(4.85859 -6.83885e-14 0)
(4.85859 4.78049e-14 0)
(4.85859 6.20207e-14 0)
(4.85859 3.22622e-14 0)
(4.85859 -2.48276e-14 0)
(4.85859 -1.56827e-14 0)
(4.85859 3.56762e-14 0)
(4.85859 4.6238e-14 0)
(4.85859 4.0687e-14 0)
(4.85859 4.69348e-14 0)
(4.85859 1.20728e-13 0)
(4.85859 1.17697e-13 0)
(4.85859 5.98637e-14 0)
(4.85859 3.70864e-14 0)
(4.85859 7.36127e-14 0)
(4.85859 1.28773e-13 0)
(4.85859 -8.25476e-15 0)
(4.85859 -2.16737e-14 0)
(4.85859 -2.38408e-14 0)
(4.85859 -4.10137e-14 0)
(4.85859 -3.12087e-14 0)
(4.85859 9.69501e-15 0)
(4.85859 -1.08585e-14 0)
(4.85859 -1.61094e-14 0)
(4.85859 3.23723e-15 0)
(4.85859 1.12913e-13 0)
(4.85859 1.05925e-13 0)
(4.85859 7.19324e-14 0)
(4.85859 5.61564e-14 0)
(4.85859 1.74797e-14 0)
(4.85859 1.7623e-14 0)
(4.85859 4.93052e-14 0)
(4.85859 9.99973e-14 0)
(4.85859 9.77269e-14 0)
(4.85859 6.56913e-14 0)
(4.85859 7.84669e-14 0)
(4.85859 9.40996e-14 0)
(4.85859 5.13389e-14 0)
(4.85859 3.42526e-14 0)
(4.85859 -1.61561e-14 0)
(4.85859 -8.4748e-14 0)
(4.85859 -1.20944e-13 0)
(4.85859 -6.85285e-14 0)
(4.85859 -8.88587e-14 0)
(4.85859 -1.14226e-13 0)
(4.85859 -6.30909e-14 0)
(4.85859 -1.00017e-17 0)
(4.85859 2.72547e-14 0)
(4.85859 1.69896e-14 0)
(4.85859 7.69233e-14 0)
(4.85859 1.11539e-13 0)
(4.85859 1.26115e-13 0)
(4.85859 9.30394e-14 0)
(4.85859 5.61297e-14 0)
(4.85859 4.40776e-14 0)
(4.85859 9.97462e-14 0)
(4.85859 1.70996e-14 0)
(4.85859 1.30723e-14 0)
(4.85859 1.88399e-14 0)
(4.85859 3.61862e-14 0)
(4.85859 6.66515e-14 0)
(4.85859 8.22209e-14 0)
(4.85859 9.30227e-14 0)
(4.85859 7.10489e-14 0)
(4.85859 4.93452e-14 0)
(4.85859 5.25957e-14 0)
(4.85859 5.13755e-14 0)
(4.85859 1.30443e-13 0)
(4.85859 1.52596e-13 0)
(4.85859 1.21988e-13 0)
(4.85859 2.8795e-14 0)
(4.85859 -2.3274e-14 0)
(4.85859 -4.98519e-14 0)
(4.85859 -3.17788e-14 0)
(4.85859 -3.82266e-14 0)
(4.85859 1.62928e-14 0)
(4.85859 5.09688e-14 0)
(4.85859 1.37157e-14 0)
(4.85859 -2.06369e-15 0)
(4.85859 1.26388e-14 0)
(4.85859 -5.96203e-14 0)
(4.85859 -1.3717e-13 0)
(4.85859 -1.48352e-13 0)
(4.85859 -1.40538e-13 0)
(4.85859 -1.12996e-13 0)
(4.85859 -6.89052e-14 0)
(4.85859 -7.735e-14 0)
(4.85859 -4.71348e-14 0)
(4.85859 -6.84618e-14 0)
(4.85859 -9.36028e-14 0)
(4.85859 -7.19724e-14 0)
(4.85859 -3.12721e-14 0)
(4.85859 2.56144e-14 0)
(4.85859 4.27574e-14 0)
(4.85859 5.39093e-15 0)
(4.85859 -3.24431e-14 0)
(4.85859 -4.03403e-15 0)
(4.85859 1.04685e-15 0)
(4.85859 1.06585e-14 0)
(4.85859 4.57179e-14 0)
(4.85859 4.78749e-14 0)
(4.85859 1.67862e-14 0)
(4.85859 3.51194e-14 0)
(4.85859 4.29574e-14 0)
(4.85859 2.00235e-14 0)
(4.85859 -5.12922e-14 0)
(4.85859 -3.84866e-14 0)
(4.85859 3.20555e-14 0)
(4.85859 7.77501e-14 0)
(4.85859 2.2994e-14 0)
(4.85859 -4.56746e-14 0)
(4.85859 -1.40484e-13 0)
(4.85859 -1.68879e-13 0)
(4.85859 -9.649e-14 0)
(4.85859 -3.55661e-14 0)
(4.85859 5.50762e-15 0)
(4.85859 4.15405e-15 0)
(4.85859 8.39478e-15 0)
(4.85859 -3.4826e-14 0)
(4.85859 -7.06455e-14 0)
(4.85859 -6.03604e-14 0)
(4.85859 -1.77964e-14 0)
(4.85859 -2.68546e-14 0)
(4.85859 -4.52211e-14 0)
(4.85859 -6.65782e-14 0)
(4.85859 -1.50026e-14 0)
(4.85859 -1.98134e-14 0)
(4.85859 -3.75465e-14 0)
(4.85859 2.97118e-14 0)
(4.85859 6.35843e-14 0)
(4.85859 6.03004e-14 0)
(4.85859 4.19639e-14 0)
(4.85859 4.14072e-14 0)
(4.85859 6.00737e-14 0)
(4.85859 2.56978e-14 0)
(4.85859 -3.06469e-14 0)
(4.85859 -1.76997e-14 0)
(4.85859 -3.10954e-14 0)
(4.85859 -2.97185e-14 0)
(4.85859 -4.06804e-14 0)
(4.85859 -7.80902e-14 0)
(4.85859 -1.18274e-13 0)
(4.85859 -1.58394e-13 0)
(4.85859 -1.48129e-13 0)
(4.85859 -1.3479e-13 0)
(4.85859 -1.19004e-13 0)
(4.85859 -8.37845e-14 0)
(4.85859 -3.13287e-14 0)
(4.85859 -9.8317e-14 0)
(4.85859 -1.44645e-13 0)
(4.85859 -1.58364e-13 0)
(4.85859 -2.2988e-13 0)
(4.85859 -1.78041e-13 0)
(4.85859 -7.22225e-14 0)
(4.85859 1.92367e-14 0)
(4.85859 4.8285e-14 0)
(4.85859 7.19824e-14 0)
(4.85859 8.16008e-14 0)
(4.85859 5.64197e-14 0)
(4.85859 4.50378e-14 0)
(4.85859 7.25225e-14 0)
(4.85859 9.24093e-14 0)
(4.85859 8.93654e-14 0)
(4.85859 3.69364e-14 0)
(4.85859 3.25023e-14 0)
(4.85859 1.57427e-14 0)
(4.85859 -1.3549e-14 0)
(4.85859 -1.19587e-14 0)
(4.85859 1.43091e-14 0)
(4.85859 2.53144e-14 0)
(4.85859 1.11966e-13 0)
(4.85859 1.11909e-13 0)
(4.85859 7.64232e-14 0)
(4.85859 4.61613e-14 0)
(4.85859 4.81583e-14 0)
(4.85859 5.43567e-14 0)
(4.85859 -4.36742e-16 0)
(4.85859 1.81031e-15 0)
(4.85859 -1.55394e-14 0)
(4.85859 -3.52194e-14 0)
(4.85859 -3.63996e-14 0)
(4.85859 -7.14657e-14 0)
(4.85859 -8.02372e-14 0)
(4.85859 -7.96438e-14 0)
(4.85859 -7.67266e-14 0)
(4.85859 -2.45876e-14 0)
(4.85859 -5.27424e-15 0)
(4.85859 -3.93635e-14 0)
(4.85859 -7.08622e-14 0)
(4.85859 -1.54797e-13 0)
(4.85859 -1.49572e-13 0)
(4.85859 -1.9464e-13 0)
(4.85859 -1.3725e-13 0)
(4.85859 -1.32903e-13 0)
(4.85859 -1.1387e-13 0)
(4.85859 -2.76614e-14 0)
(4.85859 5.31625e-14 0)
(4.85859 1.46059e-14 0)
(4.85859 3.0672e-16 0)
(4.85859 2.38675e-14 0)
(4.85859 1.09786e-14 0)
(4.85859 -2.62345e-14 0)
(4.85859 -5.75766e-14 0)
(4.85859 3.76165e-14 0)
(4.85859 5.59063e-14 0)
(4.85859 2.30907e-14 0)
(4.85859 1.59061e-14 0)
(4.85859 -2.9185e-14 0)
(4.85859 -6.91219e-14 0)
(4.85859 -7.42462e-14 0)
(4.85859 -1.06478e-13 0)
(4.85859 -1.11876e-13 0)
(4.85859 -6.99421e-14 0)
(4.85859 3.60162e-14 0)
(4.85859 1.1357e-13 0)
(4.85859 1.27947e-13 0)
(4.85859 1.20587e-14 0)
(4.85859 2.11336e-14 0)
(4.85859 6.39544e-14 0)
(4.85859 5.13022e-14 0)
(4.85859 -9.65833e-15 0)
(4.85859 -1.68729e-14 0)
(4.85859 -4.85751e-15 0)
(4.85859 3.68164e-14 0)
(4.85859 5.44527e-14 0)
(4.85859 4.96786e-14 0)
(4.85859 1.3249e-14 0)
(4.85859 -6.54246e-14 0)
(4.85859 -3.94135e-14 0)
(4.85859 -4.19272e-14 0)
(4.85859 -3.15321e-14 0)
(4.85859 1.00451e-14 0)
(4.85859 -3.21722e-15 0)
(4.85859 -5.6143e-15 0)
(4.85859 -2.97418e-14 0)
(4.85859 -1.01718e-14 0)
(4.85859 2.05702e-15 0)
(4.85859 2.10903e-14 0)
(4.85859 -1.31789e-14 0)
(4.85859 -8.96688e-14 0)
(4.85859 -1.45285e-13 0)
(4.85859 -8.03672e-14 0)
(4.85859 4.82417e-15 0)
(4.85859 2.28139e-14 0)
(4.85859 -1.09252e-14 0)
(4.85859 -3.36058e-15 0)
(4.85859 -5.52762e-15 0)
(4.85859 -7.93404e-14 0)
(4.85859 -1.24742e-13 0)
(4.85859 -1.20898e-13 0)
(4.85859 -4.47744e-14 0)
(4.85859 3.45393e-14 0)
(4.85859 2.87616e-14 0)
(4.85859 1.1402e-15 0)
(4.85859 -2.06902e-14 0)
(4.85859 1.38245e-14 0)
(4.85859 6.01771e-15 0)
(4.85859 4.33808e-14 0)
(4.85859 7.97638e-14 0)
(4.85859 9.85137e-14 0)
(4.85859 7.94871e-14 0)
(4.85859 2.58245e-14 0)
(4.85859 5.776e-14 0)
(4.85859 6.9292e-14 0)
(4.85859 5.20857e-14 0)
(4.85859 1.65862e-14 0)
(4.85859 1.89366e-14 0)
(4.85859 -2.21838e-14 0)
(4.85859 -6.20774e-15 0)
(4.85859 3.55328e-14 0)
(4.85859 6.80017e-14 0)
(4.85859 1.58334e-13 0)
(4.85859 1.60258e-13 0)
(4.85859 1.1502e-13 0)
(4.85859 2.69713e-15 0)
(4.85859 -1.51359e-14 0)
(4.85859 -2.51877e-14 0)
(4.85859 -1.64362e-15 0)
(4.85859 3.51594e-14 0)
(4.85859 8.57481e-15 0)
(4.85859 -2.92651e-14 0)
(4.85859 -6.63681e-14 0)
(4.85859 -9.14158e-15 0)
(4.85859 1.76497e-14 0)
(4.85859 2.92217e-14 0)
(4.85859 9.77035e-14 0)
(4.85859 1.01254e-13 0)
(4.85859 4.34408e-14 0)
(4.85859 3.89434e-14 0)
(4.85859 6.64748e-14 0)
(4.85859 1.27252e-13 0)
(4.85859 1.17287e-13 0)
(4.85859 1.21668e-13 0)
(4.85859 5.65298e-14 0)
(4.85859 2.58978e-14 0)
(4.85859 -1.19228e-13 0)
(4.85859 6.67449e-15 0)
(4.85859 6.08105e-15 0)
(4.85859 -2.5241e-14 0)
(4.85859 2.10403e-14 0)
(4.85859 8.10907e-14 0)
(4.85859 7.67066e-14 0)
(4.85859 8.96488e-14 0)
(4.85859 9.99706e-14 0)
(4.85859 6.39911e-14 0)
(4.85859 1.49459e-14 0)
(4.85859 -1.43391e-14 0)
(4.85859 -7.43462e-14 0)
(4.85859 -1.17627e-13 0)
(4.85859 -1.02594e-13 0)
(4.85859 -3.22822e-14 0)
(4.85859 4.11171e-14 0)
(4.85859 4.6568e-14 0)
(4.85859 4.49644e-14 0)
(4.85859 2.20838e-14 0)
(4.85859 -5.86768e-15 0)
(4.85859 2.02335e-14 0)
(4.85859 1.37357e-15 0)
(4.85859 2.27473e-14 0)
(4.85859 1.01451e-13 0)
(4.85859 1.25488e-13 0)
(4.85859 8.29343e-14 0)
(4.85859 5.53496e-14 0)
(4.85859 7.72567e-14 0)
(4.85859 8.80452e-14 0)
(4.85859 1.1448e-13 0)
(4.85859 8.53547e-14 0)
(4.85859 1.04398e-13 0)
(4.85859 9.41696e-14 0)
(4.85859 5.767e-14 0)
(4.85859 4.93919e-14 0)
(4.85859 7.00654e-14 0)
(4.85859 8.51247e-14 0)
(4.85859 6.74917e-14 0)
(4.85859 5.74099e-15 0)
(4.85859 -3.4216e-14 0)
(4.85859 -7.83469e-15 0)
(4.85859 -2.83716e-14 0)
(4.85859 -1.48592e-14 0)
(4.85859 2.1137e-15 0)
(4.85859 2.1127e-14 0)
(4.85859 4.24073e-14 0)
(4.85859 5.40493e-14 0)
(4.85859 1.06788e-13 0)
(4.85859 1.41548e-13 0)
(4.85859 1.25535e-13 0)
(4.85859 5.04254e-14 0)
(4.85859 3.43059e-14 0)
(4.85859 -1.50893e-14 0)
(4.85859 -1.26552e-13 0)
(4.85859 -1.5433e-13 0)
(4.85859 -1.88486e-13 0)
(4.85859 -4.01436e-14 0)
(4.85859 1.03835e-13 0)
(4.85859 1.35773e-13 0)
(4.85859 8.3191e-14 0)
(4.85859 5.94436e-14 0)
(4.85859 3.42159e-14 0)
(4.85859 4.33408e-15 0)
(4.85859 6.47445e-14 0)
(4.85859 1.31229e-13 0)
(4.85859 1.58017e-13 0)
(4.85859 1.52586e-13 0)
(4.85859 9.46363e-14 0)
(4.85859 1.08209e-13 0)
(4.85859 1.08589e-13 0)
(4.85859 9.15025e-14 0)
(4.85859 1.05642e-13 0)
(4.85859 6.78951e-14 0)
(4.85859 7.92704e-14 0)
(4.85859 7.80435e-14 0)
(4.85859 1.23858e-13 0)
(4.85859 4.8355e-14 0)
(4.85859 3.94802e-14 0)
(4.85859 1.88766e-14 0)
(4.85859 -2.42194e-14 0)
(4.85859 1.79364e-15 0)
(4.85859 6.84785e-15 0)
(4.85859 2.7158e-14 0)
(4.85859 3.60396e-15 0)
(4.85859 -9.74502e-15 0)
(4.85859 1.90733e-14 0)
(4.85859 2.98185e-14 0)
(4.85859 4.50611e-14 0)
(4.85859 6.29109e-14 0)
(4.85859 6.48079e-14 0)
(4.85859 2.96718e-14 0)
(4.85859 2.27406e-14 0)
(4.85859 2.25006e-14 0)
(4.85859 -2.73381e-15 0)
(4.85859 -3.14921e-14 0)
(4.85859 -6.0087e-14 0)
(4.85859 -3.93468e-14 0)
(4.85859 2.15271e-14 0)
(4.85859 3.68197e-14 0)
(4.85859 5.00586e-14 0)
(4.85859 4.10771e-14 0)
(4.85859 2.58445e-14 0)
(4.85859 3.44726e-14 0)
(4.85859 1.08215e-13 0)
(4.85859 1.21378e-13 0)
(4.85859 1.1309e-13 0)
(4.85859 1.1601e-13 0)
(4.85859 9.28394e-14 0)
(4.85859 1.02408e-13 0)
(4.85859 6.56047e-14 0)
(4.85859 8.97522e-14 0)
(4.85859 1.10816e-13 0)
(4.85859 1.61618e-13 0)
(4.85859 1.94477e-13 0)
(4.85859 2.42302e-13 0)
(4.85859 2.4925e-13 0)
(4.85859 1.21208e-13 0)
(4.85859 1.82365e-15 0)
(4.85859 -3.45226e-14 0)
(4.85859 -9.08564e-14 0)
(4.85859 -1.21688e-15 0)
(4.85859 -1.91533e-14 0)
(4.85859 -7.29993e-14 0)
(4.85859 -1.00971e-13 0)
(4.85859 -1.11653e-13 0)
(4.85859 -9.77102e-14 0)
(4.85859 -1.25422e-13 0)
(4.85859 -1.42451e-13 0)
(4.85859 -1.05528e-13 0)
(4.85859 -7.85602e-14 0)
(4.85859 -8.10107e-14 0)
(4.85859 -8.33211e-14 0)
(4.85859 8.95521e-14 0)
(4.85859 1.59518e-13 0)
(4.85859 1.48412e-13 0)
(4.85859 1.5441e-13 0)
(4.85859 1.45922e-13 0)
(4.85859 8.36478e-14 0)
(4.85859 6.9282e-14 0)
(4.85859 6.32643e-14 0)
(4.85859 6.67582e-14 0)
(4.85859 8.09807e-14 0)
(4.85859 1.66002e-13 0)
(4.85859 1.5634e-13 0)
(4.85859 1.41041e-13 0)
(4.85859 7.87036e-14 0)
(4.85859 8.67383e-14 0)
(4.85859 1.93843e-13 0)
(4.85859 1.90663e-13 0)
(4.85859 1.81608e-13 0)
(4.85859 1.49542e-13 0)
(4.85859 7.07389e-14 0)
(4.85859 2.07169e-14 0)
(4.85859 -1.82598e-14 0)
(4.85859 -9.23493e-16 0)
(4.85859 4.00903e-14 0)
(4.85859 8.24209e-14 0)
(4.85859 4.01969e-14 0)
(4.85859 9.4783e-15 0)
(4.85859 1.7839e-14 0)
(4.85859 -7.24792e-15 0)
(4.85859 -1.86399e-14 0)
(4.85859 -2.36074e-14 0)
(4.85859 -3.78599e-14 0)
(4.85859 -3.67097e-14 0)
(4.85859 -8.2851e-14 0)
(4.85859 -1.51736e-13 0)
(4.85859 -1.32633e-13 0)
(4.85859 -1.09479e-13 0)
(4.85859 -9.94772e-14 0)
(4.85859 -6.24941e-14 0)
(4.85859 2.89217e-14 0)
(4.85859 8.01138e-14 0)
(4.85859 9.04423e-14 0)
(4.85859 9.63133e-14 0)
(4.85859 1.00144e-13 0)
(4.85859 9.75835e-14 0)
(4.85859 7.50996e-14 0)
(4.85859 4.69714e-14 0)
(4.85859 3.96969e-14 0)
(4.85859 5.4246e-14 0)
(4.85859 4.25807e-14 0)
(4.85859 1.26408e-13 0)
(4.85859 1.26972e-13 0)
(4.85859 1.11739e-13 0)
(4.85859 9.81303e-14 0)
(4.85859 7.90837e-14 0)
(4.85859 9.83403e-14 0)
(4.85859 1.31369e-13 0)
(4.85859 1.48116e-13 0)
(4.85859 3.90867e-14 0)
(4.85859 4.40843e-14 0)
(4.85859 5.10888e-14 0)
(4.85859 -3.66763e-14 0)
(4.85859 -9.54998e-14 0)
(4.85859 -1.12376e-13 0)
(4.85859 -8.73584e-14 0)
(4.85859 -2.16104e-14 0)
(4.85859 4.54779e-14 0)
(4.85859 8.7888e-14 0)
(4.85859 -6.10439e-15 0)
(4.85859 3.40392e-15 0)
(4.85859 6.5678e-15 0)
(4.85859 1.33023e-15 0)
(4.85859 -1.43025e-14 0)
(4.85859 -2.64846e-14 0)
(4.85859 -3.53128e-14 0)
(4.85859 2.98185e-14 0)
(4.85859 7.5143e-14 0)
(4.85859 7.18357e-14 0)
(4.85859 8.04972e-14 0)
(4.85859 1.09892e-13 0)
(4.85859 8.24009e-14 0)
(4.85859 8.4768e-14 0)
(4.85859 8.28376e-14 0)
(4.85859 4.58513e-14 0)
(4.85859 -1.15853e-14 0)
(4.85859 -8.74518e-14 0)
(4.85859 -6.3601e-14 0)
(4.85859 -3.44293e-14 0)
(4.85859 -2.7018e-14 0)
(4.85859 3.18388e-15 0)
(4.85859 -7.08022e-14 0)
(4.85859 -6.26908e-14 0)
(4.85859 -5.41193e-14 0)
(4.85859 7.47162e-14 0)
(4.85859 9.24093e-14 0)
(4.85859 6.03071e-14 0)
(4.85859 1.40014e-13 0)
(4.85859 1.43535e-13 0)
(4.85859 9.01389e-14 0)
(4.85859 9.04123e-14 0)
(4.85859 8.54948e-14 0)
(4.85859 8.43979e-14 0)
(4.85859 2.68046e-14 0)
(4.85859 -4.32808e-14 0)
(4.85859 -6.02537e-14 0)
(4.85859 1.01818e-14 0)
(4.85859 3.34591e-14 0)
(4.85859 7.56604e-14 0)
(4.85859 -6.0077e-15 0)
(4.85859 1.08119e-14 0)
(4.85859 1.40124e-14 0)
(4.85859 2.81115e-14 0)
(4.85859 1.79564e-14 0)
(4.85859 5.82867e-14 0)
(4.85859 1.09889e-13 0)
(4.85859 1.06325e-13 0)
(4.85859 1.21534e-13 0)
(4.85859 2.04865e-13 0)
(4.85859 1.57611e-13 0)
(4.85859 1.14756e-13 0)
(4.85859 2.08703e-14 0)
(4.85859 2.30907e-14 0)
(4.85859 2.61278e-14 0)
(4.85859 3.14421e-14 0)
(4.85859 3.06486e-14 0)
(4.85859 3.43259e-14 0)
(4.85859 1.56694e-15 0)
(4.85859 5.56096e-15 0)
(4.85859 8.77151e-15 0)
(4.85859 5.47094e-15 0)
(4.85859 -1.03515e-13 0)
(4.85859 -1.06342e-13 0)
(4.85859 8.02872e-14 0)
(4.85859 1.89983e-13 0)
(4.85859 1.92783e-13 0)
(4.85859 6.20607e-14 0)
(4.85859 -4.68214e-14 0)
(4.85859 -2.65846e-14 0)
(4.85859 4.85551e-14 0)
(4.85859 9.53831e-14 0)
(4.85859 1.09422e-13 0)
(4.85859 1.20047e-13 0)
(4.85859 9.98672e-14 0)
(4.85859 -5.34492e-14 0)
(4.85859 -7.96571e-14 0)
(4.85859 -4.22873e-14 0)
(4.85859 2.16237e-14 0)
(4.85859 1.16499e-13 0)
(4.85859 -4.0807e-15 0)
(4.85859 -1.02684e-15 0)
(4.85859 4.62413e-15 0)
(4.85859 3.98069e-14 0)
(4.85859 1.00941e-13 0)
(4.85859 1.12629e-13 0)
(4.85859 8.11407e-14 0)
(4.85859 5.63764e-14 0)
(4.85859 3.85567e-14 0)
(4.85859 -3.60029e-14 0)
(4.85859 -4.8035e-14 0)
(4.85859 -2.77548e-14 0)
(4.85859 -2.81582e-14 0)
(4.85859 -9.43996e-14 0)
(4.85859 -1.1553e-13 0)
(4.85859 -9.91605e-14 0)
(4.85859 3.00018e-14 0)
(4.85859 7.56831e-14 0)
(4.85859 8.59982e-14 0)
(4.85859 4.11038e-14 0)
(4.85859 -9.73168e-15 0)
(4.85859 -2.26406e-14 0)
(4.85859 -6.3711e-15 0)
(4.85859 -3.51761e-14 0)
(4.85859 -4.47844e-14 0)
(4.85859 -5.28791e-14 0)
(4.85859 -2.74981e-14 0)
(4.85859 -6.28909e-14 0)
(4.85859 -9.10124e-14 0)
(4.85859 6.86785e-16 0)
(4.85859 8.81552e-14 0)
(4.85859 9.82003e-14 0)
(4.85859 1.22214e-13 0)
(4.85859 1.5575e-13 0)
(4.85859 1.53093e-13 0)
(4.85859 1.52093e-13 0)
(4.85859 1.61408e-13 0)
(4.85859 5.99537e-14 0)
(4.85859 5.772e-14 0)
(4.85859 3.55871e-14 0)
(4.85859 1.50826e-14 0)
(4.85859 1.20354e-15 0)
(4.85859 -9.59166e-15 0)
(4.85859 5.4076e-15 0)
(4.85859 1.07452e-14 0)
(4.85859 2.34541e-14 0)
(4.85859 2.1447e-14 0)
(4.85859 3.10554e-14 0)
(4.85859 -2.09103e-14 0)
(4.85859 -1.25112e-13 0)
(4.85859 -1.16233e-13 0)
(4.85859 -9.97239e-14 0)
(4.85859 -5.23424e-14 0)
(4.85859 -1.01214e-13 0)
(4.85859 -1.19594e-13 0)
(4.85859 -1.59321e-13 0)
(4.85859 -1.03204e-13 0)
(4.85859 -1.01184e-13 0)
(4.85859 -9.06257e-14 0)
(4.85859 -5.34392e-14 0)
(4.85859 -5.74699e-14 0)
(4.85859 -1.00867e-13 0)
(4.85859 -9.08757e-14 0)
(4.85859 -6.74383e-14 0)
(4.85859 -7.87269e-14 0)
(4.85859 -8.37778e-14 0)
(4.85859 -8.6795e-14 0)
(4.85859 -7.68366e-14 0)
(4.85859 -1.87066e-14 0)
(4.85859 2.98618e-14 0)
(4.85859 1.16467e-13 0)
(4.85859 1.72396e-13 0)
(4.85859 2.09716e-13 0)
(4.85859 1.49779e-13 0)
(4.85859 1.19054e-13 0)
(4.85859 1.40061e-13 0)
(4.85859 2.18604e-13 0)
(4.85859 2.17864e-13 0)
(4.85859 5.73299e-14 0)
(4.85859 -2.39139e-15 0)
(4.85859 6.04438e-15 0)
(4.85859 1.03985e-14 0)
(4.85859 2.04769e-14 0)
(4.85859 2.69947e-14 0)
(4.85859 3.57062e-14 0)
(4.85859 1.76597e-14 0)
(4.85859 2.65813e-14 0)
(4.85859 3.32424e-14 0)
(4.85859 2.10036e-15 0)
(4.85859 -3.4506e-14 0)
(4.85859 -3.39525e-14 0)
(4.85859 -2.14604e-14 0)
(4.85859 -1.11919e-14 0)
(4.85859 -7.1679e-15 0)
(4.85859 -9.60166e-16 0)
(4.85859 -5.43194e-14 0)
(4.85859 -4.58646e-14 0)
(4.85859 -1.23908e-13 0)
(4.85859 -2.39275e-13 0)
(4.85859 -2.24649e-13 0)
(4.85859 -1.29152e-13 0)
(4.85859 -6.39244e-14 0)
(4.85859 -3.68597e-14 0)
(4.85859 -6.90086e-14 0)
(4.85859 -8.63849e-14 0)
(4.85859 -1.25222e-13 0)
(4.85859 -1.38297e-13 0)
(4.85859 -6.99487e-14 0)
(4.85859 -3.41059e-15 0)
(4.85859 4.84984e-14 0)
(4.85859 1.29322e-13 0)
(4.85859 1.65399e-13 0)
(4.85859 1.81678e-13 0)
(4.85859 7.78634e-14 0)
(4.85859 3.23956e-14 0)
(4.85859 2.17371e-14 0)
(4.85859 9.91938e-14 0)
(4.85859 1.45298e-13 0)
(4.85859 -1.79598e-14 0)
(4.85859 -1.28631e-13 0)
(4.85859 -6.48779e-15 0)
(4.85859 5.59097e-15 0)
(4.85859 9.73168e-15 0)
(4.85859 -1.45192e-14 0)
(4.85859 -1.51893e-14 0)
(4.85859 -3.52894e-14 0)
(4.85859 -5.36759e-14 0)
(4.85859 -5.08488e-14 0)
(4.85859 -3.54361e-14 0)
(4.85859 -3.60896e-14 0)
(4.85859 -9.43296e-14 0)
(4.85859 -4.52278e-14 0)
(4.85859 3.31757e-14 0)
(4.85859 5.72199e-14 0)
(4.85859 1.03851e-13 0)
(4.85859 5.42494e-14 0)
(4.85859 3.02852e-14 0)
(4.85859 2.49743e-14 0)
(4.85859 8.36811e-16 0)
(4.85859 -8.88753e-14 0)
(4.85859 -1.34527e-13 0)
(4.85859 -1.19951e-13 0)
(4.85859 -6.79684e-14 0)
(4.85859 -5.91102e-15 0)
(4.85859 -4.6608e-15 0)
(4.85859 1.31123e-14 0)
(4.85859 -6.29775e-15 0)
(4.85859 6.22608e-14 0)
(4.85859 1.16053e-13 0)
(4.85859 1.37257e-13 0)
(4.85859 7.89603e-14 0)
(4.85859 -3.25156e-14 0)
(4.85859 -1.29802e-13 0)
(4.85859 -1.37747e-13 0)
(4.85859 -1.83162e-13 0)
(4.85859 -1.5357e-13 0)
(4.85859 -1.21268e-13 0)
(4.85859 -1.04068e-13 0)
(4.85859 -9.92405e-14 0)
(4.85859 -1.40101e-13 0)
(4.85859 1.77164e-14 0)
(4.85859 3.03552e-14 0)
(4.85859 1.97501e-14 0)
(4.85859 1.93033e-15 0)
(4.85859 -1.03585e-14 0)
(4.85859 1.1472e-14 0)
(4.85859 -4.29074e-15 0)
(4.85859 -5.90869e-14 0)
(4.85859 -7.31126e-14 0)
(4.85859 -6.38944e-14 0)
(4.85859 -1.04468e-13 0)
(4.85859 -6.79317e-14 0)
(4.85859 -3.92701e-14 0)
(4.85859 -1.84298e-14 0)
(4.85859 7.02488e-14 0)
(4.85859 2.6928e-13 0)
(4.85859 2.84579e-13 0)
(4.85859 3.11741e-13 0)
(4.85859 2.80899e-13 0)
(4.85859 1.72e-13 0)
(4.85859 9.54665e-14 0)
(4.85859 7.08489e-14 0)
(4.85859 3.98469e-14 0)
(4.85859 4.96086e-14 0)
(4.85859 1.04735e-13 0)
(4.85859 1.42001e-13 0)
(4.85859 1.50756e-13 0)
(4.85859 1.50489e-13 0)
(4.85859 7.88036e-14 0)
(4.85859 2.01668e-14 0)
(4.85859 -2.72447e-14 0)
(4.85859 -1.40318e-13 0)
(4.85859 -2.83436e-13 0)
(4.85859 -3.15044e-13 0)
(4.85859 -3.07143e-13 0)
(4.85859 -3.0612e-13 0)
(4.85859 -2.62012e-13 0)
(4.85859 -1.62195e-13 0)
(4.85859 -1.66755e-13 0)
(4.85859 -7.17597e-14 0)
(4.85859 -1.82398e-14 0)
(4.85859 -3.79766e-14 0)
(4.85859 -6.85118e-14 0)
(4.85859 -7.07689e-14 0)
(4.85859 -3.73998e-14 0)
(4.85859 1.15687e-15 0)
(4.85859 3.6503e-14 0)
(4.85859 7.64132e-14 0)
(4.85859 4.62046e-14 0)
(4.85859 5.46761e-16 0)
(4.85859 -6.34776e-15 0)
(4.85859 -2.60878e-14 0)
(4.85859 -2.88516e-14 0)
(4.85859 -2.46076e-14 0)
(4.85859 2.97385e-15 0)
(4.85859 8.28543e-14 0)
(4.85859 1.50673e-13 0)
(4.85859 2.25142e-13 0)
(4.85859 2.61148e-13 0)
(4.85859 2.6989e-13 0)
(4.85859 1.69366e-13 0)
(4.85859 -3.03386e-16 0)
(4.85859 -2.67313e-14 0)
(4.85859 -2.53577e-14 0)
(4.85859 4.80783e-14 0)
(4.85859 1.09012e-13 0)
(4.85859 1.51736e-13 0)
(4.85859 6.04404e-14 0)
(4.85859 -5.43294e-14 0)
(4.85859 -5.74499e-14 0)
(4.85859 -6.7325e-14 0)
(4.85859 -1.68202e-13 0)
(4.85859 -3.06783e-13 0)
(4.85859 -2.58215e-13 0)
(4.85859 -1.85039e-13 0)
(4.85859 -2.01168e-13 0)
(4.85859 -2.43092e-13 0)
(4.85859 -2.64649e-13 0)
(4.85859 -2.79948e-13 0)
(4.85859 -1.94375e-13 0)
(4.85859 -7.45462e-15 0)
(4.85859 -4.30941e-14 0)
(4.85859 -5.93936e-14 0)
(4.85859 -6.28108e-14 0)
(4.85859 -6.97054e-14 0)
(4.85859 -9.76469e-14 0)
(4.85859 -6.62948e-14 0)
(4.85859 -2.90717e-15 0)
(4.85859 1.947e-14 0)
(4.85859 3.44359e-14 0)
(4.85859 4.01603e-14 0)
(4.85859 1.70563e-14 0)
(4.85859 -3.00419e-14 0)
(4.85859 -1.52826e-14 0)
(4.85859 9.43863e-14 0)
(4.85859 5.56796e-14 0)
(4.85859 7.19524e-14 0)
(4.85859 7.39161e-14 0)
(4.85859 6.64815e-14 0)
(4.85859 1.07199e-13 0)
(4.85859 1.68339e-13 0)
(4.85859 8.94888e-14 0)
(4.85859 1.60328e-14 0)
(4.85859 -6.92853e-14 0)
(4.85859 -1.43181e-13 0)
(4.85859 -1.24345e-13 0)
(4.85859 -1.05852e-13 0)
(4.85859 -7.1179e-14 0)
(4.85859 -4.99453e-14 0)
(4.85859 -6.73216e-14 0)
(4.85859 -7.5103e-14 0)
(4.85859 -9.68634e-14 0)
(4.85859 -1.14253e-13 0)
(4.85859 -1.361e-13 0)
(4.85859 -1.45132e-13 0)
(4.85859 -1.7111e-13 0)
(4.85859 -2.17371e-13 0)
(4.85859 -2.98025e-13 0)
(4.85859 -2.85209e-13 0)
(4.85859 -2.7146e-13 0)
(4.85859 9.8417e-15 0)
(4.85859 3.20055e-14 0)
(4.85859 1.06422e-13 0)
(4.85859 1.25242e-13 0)
(4.85859 9.0989e-14 0)
(4.85859 5.79767e-14 0)
(4.85859 -5.68698e-14 0)
(4.85859 -1.31799e-13 0)
(4.85859 -1.26272e-13 0)
(4.85859 -4.72515e-14 0)
(4.85859 1.30056e-14 0)
(4.85859 1.5586e-14 0)
(4.85859 -5.10421e-14 0)
(4.85859 -3.97969e-14 0)
(4.85859 -2.35541e-14 0)
(4.85859 -1.03181e-13 0)
(4.85859 -4.65547e-14 0)
(4.85859 -2.58111e-14 0)
(4.85859 -2.83949e-14 0)
(4.85859 -1.01784e-14 0)
(4.85859 3.00485e-14 0)
(4.85859 1.91833e-14 0)
(4.85859 -2.73647e-14 0)
(4.85859 -5.84168e-14 0)
(4.85859 -6.47645e-14 0)
(4.85859 -1.05428e-13 0)
(4.85859 -1.01321e-13 0)
(4.85859 -1.10102e-13 0)
(4.85859 -1.22031e-13 0)
(4.85859 -1.59167e-13 0)
(4.85859 -1.1322e-14 0)
(4.85859 7.65032e-14 0)
(4.85859 1.58071e-13 0)
(4.85859 1.5189e-13 0)
(4.85859 8.67016e-14 0)
(4.85859 2.22138e-14 0)
(4.85859 -1.07685e-14 0)
(4.85859 -5.55563e-14 0)
(4.85859 -8.36078e-14 0)
(4.85859 -1.22037e-13 0)
(4.85859 3.60062e-15 0)
(4.85859 1.42991e-14 0)
(4.85859 1.84532e-14 0)
(4.85859 4.25774e-14 0)
(4.85859 5.41794e-14 0)
(4.85859 7.56364e-14 0)
(4.85859 7.96971e-14 0)
(4.85859 4.67714e-14 0)
(4.85859 3.99969e-14 0)
(4.85859 7.56464e-15 0)
(4.85859 -4.4271e-14 0)
(4.85859 -2.48176e-14 0)
(4.85859 -1.12986e-14 0)
(4.85859 -1.57461e-14 0)
(4.85859 -3.66463e-14 0)
(4.85859 -4.78549e-14 0)
(4.85859 -3.93368e-14 0)
(4.85859 -4.8075e-14 0)
(4.85859 -5.34492e-14 0)
(4.85859 -7.1569e-14 0)
(4.85859 -6.28175e-14 0)
(4.85859 -5.63764e-15 0)
(4.85859 4.38009e-14 0)
(4.85859 6.99387e-14 0)
(4.85859 1.06728e-13 0)
(4.85859 8.45846e-14 0)
(4.85859 5.14322e-14 0)
(4.85859 -1.32953e-13 0)
(4.85859 -3.00155e-13 0)
(4.85859 -3.36321e-13 0)
(4.85859 -2.63125e-13 0)
(4.85859 -4.29441e-14 0)
(4.85859 -5.33425e-15 0)
(4.85859 -2.9035e-14 0)
(4.85859 -3.50327e-14 0)
(4.85859 -6.21107e-15 0)
(4.85859 1.62765e-13 0)
(4.85859 1.62268e-13 0)
(4.85859 1.30039e-13 0)
(4.85859 4.89856e-14 0)
(4.85859 -1.01084e-14 0)
(4.85859 -5.11322e-14 0)
(4.85859 -5.56296e-14 0)
(4.85859 -4.10604e-14 0)
(4.85859 -5.14989e-14 0)
(4.85859 -8.65149e-15 0)
(4.85859 8.86186e-14 0)
(4.85859 1.179e-13 0)
(4.85859 7.87236e-14 0)
(4.85859 2.96485e-14 0)
(4.85859 2.50677e-14 0)
(4.85859 6.89619e-14 0)
(4.85859 9.76835e-14 0)
(4.85859 7.3546e-14 0)
(4.85859 1.96701e-14 0)
(4.85859 6.41777e-15 0)
(4.85859 -3.4516e-14 0)
(4.85859 -3.832e-14 0)
(4.85859 -2.01902e-14 0)
(4.85859 -7.97671e-14 0)
(4.85859 -8.07639e-14 0)
(4.85859 -5.00253e-14 0)
(4.85859 -9.27193e-14 0)
(4.85859 -1.47449e-13 0)
(4.85859 -1.7589e-13 0)
(4.85859 -2.12083e-13 0)
(4.85859 -2.7236e-13 0)
(4.85859 -3.46403e-13 0)
(4.85859 -3.81106e-13 0)
(4.85859 -3.42109e-13 0)
(4.85859 -2.68623e-13 0)
(4.85859 -2.24402e-13 0)
(4.85859 -1.97584e-13 0)
(4.85859 -2.03615e-13 0)
(4.85859 -1.66242e-13 0)
(4.85859 -5.48728e-14 0)
(4.85859 5.764e-14 0)
(4.85859 9.81436e-14 0)
(4.85859 1.50899e-13 0)
(4.85859 1.50984e-13 0)
(4.85859 -1.63962e-14 0)
(4.85859 2.35707e-15 0)
(4.85859 3.10054e-16 0)
(4.85859 -5.91736e-14 0)
(4.85859 -6.47412e-14 0)
(4.85859 -5.17556e-14 0)
(4.85859 1.19787e-14 0)
(4.85859 6.55747e-14 0)
(4.85859 7.3196e-14 0)
(4.85859 1.32266e-13 0)
(4.85859 1.70983e-13 0)
(4.85859 1.22124e-13 0)
(4.85859 1.92633e-14 0)
(4.85859 -1.88366e-14 0)
(4.85859 -1.06188e-13 0)
(4.85859 -1.42741e-13 0)
(4.85859 -1.37964e-13 0)
(4.85859 -9.15558e-14 0)
(4.85859 -2.28906e-14 0)
(4.85859 -6.21674e-14 0)
(4.85859 -1.3377e-13 0)
(4.85859 -1.7285e-13 0)
(4.85859 -1.62008e-13 0)
(4.85859 -1.85849e-13 0)
(4.85859 -2.2888e-13 0)
(4.85859 -2.61382e-13 0)
(4.85859 -2.86163e-13 0)
(4.85859 -2.76154e-13 0)
(4.85859 -2.08443e-13 0)
(4.85859 -1.91226e-13 0)
(4.85859 -2.37851e-13 0)
(4.85859 -2.32607e-13 0)
(4.85859 -7.67132e-14 0)
(4.85859 -5.84501e-14 0)
(4.85859 -2.08203e-14 0)
(4.85859 -9.70168e-15 0)
(4.85859 -4.33275e-14 0)
(4.85859 -5.01587e-14 0)
(4.85859 2.29173e-14 0)
(4.85859 7.91532e-14 0)
(4.85859 1.54793e-14 0)
(4.85859 1.11853e-14 0)
(4.85859 -1.58094e-14 0)
(4.85859 -5.21057e-14 0)
(4.85859 -4.46744e-15 0)
(4.85859 1.83065e-14 0)
(4.85859 5.61264e-14 0)
(4.85859 6.53013e-14 0)
(4.85859 7.36027e-14 0)
(4.85859 9.78469e-14 0)
(4.85859 9.21226e-14 0)
(4.85859 -2.47043e-15 0)
(4.85859 -2.5271e-14 0)
(4.85859 -5.42427e-15 0)
(4.85859 -1.29622e-14 0)
(4.85859 -2.54344e-14 0)
(4.85859 -2.06669e-14 0)
(4.85859 1.25222e-14 0)
(4.85859 -1.7123e-14 0)
(4.85859 -1.00594e-13 0)
(4.85859 -1.43818e-13 0)
(4.85859 -1.77854e-13 0)
(4.85859 -1.91816e-13 0)
(4.85859 -2.07152e-13 0)
(4.85859 -2.51543e-13 0)
(4.85859 -1.93167e-13 0)
(4.85859 -2.04762e-13 0)
(4.85859 -1.38457e-13 0)
(4.85859 -7.9407e-14 0)
(4.85859 -9.19959e-14 0)
(4.85859 -1.05245e-13 0)
(4.85859 -1.73723e-13 0)
(4.85859 -1.64915e-13 0)
(4.85859 -1.11539e-13 0)