/*--------------------------------*- C++ -*----------------------------------*\
| =========                 |                                                 |
| \\      /  F ield         | OpenFOAM: The Open Source CFD Toolbox           |
|  \\    /   O peration     | Version:  2206                                  |
|   \\  /    A nd           | Website:  www.openfoam.com                      |
|    \\/     M anipulation  |                                                 |
\*---------------------------------------------------------------------------*/
FoamFile
{
    version     2.0;
    format      ascii;
    arch        "LSB;label=32;scalar=64";
    class       volScalarField;
    location    "0.16";
    object      p;
}
// * * * * * * * * * * * * * * * * * * * * * * * * * * * * * * * * * * * * * //

dimensions      [1 -1 -2 0 0 0 0];

internalField   nonuniform List<scalar> 
4800
(
1
1
1
1
1
1
1
1
1
1
1
1
1
1
1
1
1
1
1
1
1
1
1
1
1
1
1
1
1
1
1
1
1
1
1
1
1
1
1
1
1
1
1
1
1
1
1
1
1
1
1
1
1
1
1
1
1
1
1
1
1
1
1
1
1
1
1
1
1
1
1
1
1
1
1
1
1
1
1
1
1
1
1
1
1
1
1
1
1
1
1
1
1
1
1
1
1
1
1
1
1
1
1
1
1
1
1
1
1
1
1
1
1
1
1
1
1
1
1
1
1
1
1
1
1
1
1
1
1
1
1
1
1
1
1
1
1
1
1
1
1
1
1
1
1
1
1
1
1
1
1
1
1
1
1
1
1
1
1
1
1
1
1
1
1
1
1
1
1
1
1
1
1
1
1
1
1
1
1
1
1
1
1
1
1
1
1
1
1
1
1
1
1
1
1
1
1
1
1
1
1
1
1
1
1
1
1
1
1
1
1
1
1
1
1
1
1
1
1
1
1
1
1
1
1
1
1
1
1
1
1
1
1
1
1
1
1
1
1
1
1
1
1
1
1
1
1
1
1
1
1
1
1
1
1
1
1
1
1
1
1
1
1
1
1
1
1
1
1
1
1
1
1
1
1
1
1
1
1
1
1
1
1
1
1
1
1
1
1
1
1
1
1
1
1
1
1
1
1
1
1
1
1
1
1
1
1
1
1
1
1
1
1
1
1
1
1
1
1
1
1
1
1
1
1
1
1
1
1
1
1
1
1
1
1
1
1
1
1
1
1
1
1
1
1
1
1
1
1
1
1
1
1
1
1
1
1
1
1
1
1
1
1
1
1
1
1
1
1
1
1
1
1
1
1
1
1
1
1
1
1
1
1
1
1
1
1
1
1
1
1
1
1
1
1
1
1
1
1
1
1
1
1
1
1
1
1
1
1
1
1
1
1
1
1
1
1
1
1
1
1
1
1
1
1
1
1
1
1
1
1
1
1
1
1
1
1
1
1
1
1
1
1
1
1
1
1
1
1
1
1
1
1
1
1
1
1
1
1
1
1
1
1
1
1
1
1
1
1
1
1
1
1
1
1
1
1
1
1
1
1
1
1
1
1
1
1
1
1
1
1
1
1
1
1
1
1
1
1
1
1
1
1
1
1
1
1
1
1
1
1
1
1
1
1
1
1
1
1
1
1
1
1
1
1
1
1
1
1
1
1
1
1
1
1
1
1
1
1
1
1
1
1
1
1
1
1
1
1
1
1
1
1
1
1
1
1
1
1
1
1
1
1
1
1
1
1
1
1
1
1
1
1
1
1
1
1
1
1
1
1
1
1
1
1
1
1
1
1
1
1
1
1
1
1
1
1
1
1
1
1
1
1
1
1
1
1
1
1
1
1
1
1
1
1
1
1
1
1
1
1
1
1
1
1
1
1
1
1
1
1
1
1
1
1
1
1
1
1
1
1
1
1
1
1
1
1
1
1
1
1
1
1
1
1
1
1
1
1
1
1
1
1
1
1
1
1
1
1
1
1
1
1
1
1
1
1
1
1
1
1
1
1
1
1
1
1
1
1
1
1
1
1
1
1
1
1
1
1
1
1
1
1
1
1
1
1
1
1
1
1
1
1
1
1
1
1
1
1
1
1
1
1
1
1
1
1
1
1
1
1
1
1
1
1
1
1
1
1
1
1
1
1
1
1
1
1
1
1
1
1
1
1
1
1
1
1
1
1
1
1
1
1
1
1
1
1
1
1
1
1
1
1
1
1
1
1
1
1
1
1
1
1
1
1
1
1
1
1
1
1
1
1
1
1
1
1
1
1
1
1
1
1
1
1
1
1
1
1
1
1
1
1
1
1
1
1
1
1
1
1
1
1
1
1
1
1
1
1
1
1
1
1
1
1
1
1
1
1
1
1
1
1
1
1
1
1
1
1
1
1
1
1
1
1
1
1
1
1
1
1
1
1
1
1
1
1
1
1
1
1
1
1
1
1
1
1
1
1
1
1
1
1
1
1
1
1
1
1
1
1
1
1
1
1
1
1
1
1
1
1
1
1
1
1
1
1
1
1
1
1
1
1
1
1
1
1
1
1
1
1
1
1
1
1
1
1
1
1
1
1
1
1
1
1
1
1
1
1
1
1
1
1
1
1
1
1
1
1
1
1
1
1
1
1
1
1
1
1
1
1
1
1
1
1
1
1
1
1
1
1
1
1
1
1
1
1
1
1
1
1
1
1
1
1
1
1
1
1
1
1
1
1
1
1
1
1
1
1
1
1
1
1
1
1
1
1
1
1
1
1
1
1
1
1
1
1
1
1
1
1
1
1
1
1
1
1
1
1
1
1
1
1
1
1
1
1
1
1
1
1
1
1
1
1
1
1
1
1
1
1
1
1
1
1
1
1
1
1
1
1
1
1
1
1
1
1
1
1
1
1
1
1
1
1
1
1
1
1
1
1
1
1
1
1
1
1
1
1
1
1
1
1
1
1
1
1
1
1
1
1
1
1
1
1
1
1
1
1
1
1
1
1
1
1
1
1
1
1
1
1
1
1
1
1
1
1
1
1
1
1
1
1
1
1
1
1
1
1
1
1
1
1
1
1
1
1
1
1
1
1
1
1
1
1
1
1
1
1
1
1
1
1
1
1
1
1
1
1
1
1
1
1
1
1
1
1
1
1
1
1
1
1
1
1
1
1
1
1
1
1
1
1
1
1
1
1
1
1
1
1
1
1
1
1
1
1
1
1
1
1
1
1
1
1
1
1
1
1
1
1
1
1
1
1
1
1
1
1
1
1
1
1
1
1
1
1
1
1
1
1
1
1
1
1
1
1
1
1
1
1
1
1
1
1
1
1
1
1
1
1
1
1
1
1
1
1
1
1
1
1
1
1
1
1
1
1
1
1
1
1
1
1
1
1
1
1
1
1
1
1
1
1
1
1
1
1
1
1
1
1
1
1
1
1
1
1
1
1
1
1
1
1
1
1
1
1
1
1
1
1
1
1
1
1
1
1
1
1
1
1
1
1
1
1
1
1
1
1
1
1
1
1
1
1
1
1
1
1
1
1
1
1
1
1
1
1
1
1
1
1
1
1
1
1
1
1
1
1
1
1
1
1
1
1
1
1
1
1
1
1
1
1
1
1
1
1
1
1
1
1
1
1
1
1
1
1
1
1
1
1
1
1
1
1
1
1
1
1
1
1
1
1
1
1
1
1
1
1
1
1
1
1
1
1
1
1
1
1
1
1
1
1
1
1
1
1
1
1
1
1
1
1
1
1
1
1
1
1
1
1
1
1
1
1
1
1
1
1
1
1
1
1
1
1
1
1
1
1
1
1
1
1
1
1
1
1
1
1
1
1
1
1
1
1
1
1
1
1
1
1
1
1
1
1
1
1
1
1
1
1
1
1
1
1
1
1
1
1
1
1
1
1
1
1
1
1
1
1
1
1
1
1
1
1
1
1
1
1
1
1
1
1
1
1
1
1
1
1
1
1
1
1
1
1
1
1
1
1
1
1
1
1
1
1
1
1
1
1
1
1
1
1
1
1
1
1
1
1
1
1
1
1
1
1
1
1
1
1
1
1
1
1
1
1
1
1
1
1
1
1
1
1
1
1
1
1
1
1
1
1.26411
1.69108
2.18022
2.70837
3.36891
3.94266
4.33359
4.83884
5.56422
5.71061
5.83295
5.96573
5.93861
5.76521
5.37784
4.91172
4.58104
4.3507
4.10481
3.95779
3.95924
3.98108
3.98107
4.00296
4.04303
4.10784
4.17184
4.20457
4.209
4.20284
4.19899
4.20595
4.21174
4.20634
4.20082
4.20185
4.21755
4.2417
4.25878
4.26675
4.26482
4.25806
4.24961
4.2414
4.23109
4.22272
4.21489
4.20667
4.20276
4.20556
4.21704
4.23263
4.24532
4.25527
4.26381
4.26975
4.27226
4.27162
4.26763
4.26192
4.25302
4.24417
4.23452
4.22415
4.21763
4.21692
4.22047
4.23088
4.24788
4.26923
4.27857
4.28
4.28022
4.27827
4.27503
4.27324
4.27095
4.26796
4.26453
4.25922
0.999745
0.999356
1.02187
1.06529
1.12967
1.31969
1.60094
1.84707
2.23628
2.71709
3.11503
3.53289
3.92584
4.16555
4.17959
4.41421
4.64085
4.59468
4.49918
4.37963
4.34482
4.32757
4.26995
4.21343
4.139
4.11503
4.12394
4.13921
4.14946
4.15674
4.17438
4.20301
4.21942
4.22013
4.21723
4.21192
4.20735
4.20804
4.2123
4.21974
4.22861
4.23874
4.24498
4.24664
4.24713
4.24487
4.24258
4.24001
4.23515
4.23131
4.23019
4.22937
4.22763
4.22525
4.22481
4.2297
4.23832
4.24827
4.2567
4.26059
4.26241
4.26256
4.2617
4.25742
4.24914
4.24512
4.24585
4.24976
4.25602
4.25878
4.25779
4.25495
4.25178
4.24972
4.25033
4.2534
4.25811
4.26132
4.26133
4.26177
1
1
1
1
0.999999
1
0.999528
1.00296
1.02342
1.1101
1.26148
1.59182
2.08462
2.78455
3.62007
4.23463
4.78034
4.8297
4.7883
4.76055
4.71061
4.64031
4.53838
4.31189
4.13978
4.09606
4.10902
4.12288
4.12806
4.14337
4.17441
4.2107
4.22805
4.22868
4.22612
4.22306
4.21476
4.20622
4.20519
4.20284
4.20022
4.20478
4.21882
4.23667
4.25138
4.25888
4.25921
4.25692
4.25856
4.25993
4.25677
4.24834
4.23692
4.22306
4.21043
4.20538
4.20734
4.21333
4.22715
4.24791
4.26419
4.27128
4.27271
4.27222
4.26735
4.26548
4.26686
4.26915
4.27015
4.26646
4.25796
4.24874
4.24053
4.23606
4.23499
4.23537
4.23903
4.24677
4.2534
4.25876
1
1
1
1
1
1
1
1
1
1
0.999786
1.00009
1.01321
1.08501
1.40122
1.89926
2.7064
3.43147
3.91031
4.39081
4.43882
4.44708
4.47582
4.45307
4.3888
4.32288
4.29416
4.25671
4.21192
4.16854
4.15158
4.15128
4.17099
4.19204
4.20708
4.21335
4.21713
4.22275
4.22394
4.21616
4.20529
4.195
4.19566
4.20467
4.21681
4.2318
4.2496
4.26726
4.27895
4.28092
4.27645
4.26488
4.24925
4.23188
4.21571
4.20777
4.20841
4.21141
4.21613
4.22399
4.2374
4.25094
4.2612
4.26911
4.2746
4.27733
4.2788
4.28013
4.27848
4.27336
4.26487
4.25091
4.23947
4.23647
4.23624
4.23765
4.24004
4.24368
4.2485
4.25191
1
1
1
1
1
1
1
1
1
1
1
1
1
1
0.999456
1.00631
1.06872
1.37746
1.83095
2.51818
3.2322
3.83813
4.43481
4.53294
4.56698
4.5558
4.50931
4.44336
4.3469
4.20038
4.11357
4.11306
4.14439
4.17508
4.18554
4.19366
4.20287
4.21304
4.22671
4.23238
4.23041
4.2152
4.20907
4.21354
4.21476
4.21364
4.21721
4.2281
4.24282
4.25573
4.26401
4.26461
4.26021
4.25618
4.25079
4.2429
4.23775
4.23488
4.23309
4.23364
4.23592
4.23639
4.23735
4.2394
4.24296
4.24844
4.25729
4.26681
4.27016
4.26962
4.26574
4.25625
4.24879
4.24868
4.25103
4.25279
4.2539
4.25558
4.25773
4.25745
1
1
1
1
1
1
1
1
1
1
1
1
1
1
1
1
1
0.999739
1.00569
1.05623
1.3237
1.74426
2.43347
3.12653
3.70266
4.22772
4.26945
4.29332
4.31297
4.27518
4.22161
4.21071
4.22331
4.22033
4.20585
4.19073
4.18772
4.18822
4.20333
4.22273
4.22578
4.22444
4.23407
4.23594
4.23189
4.22156
4.20979
4.20423
4.20481
4.21358
4.22876
4.24648
4.25991
4.26669
4.26882
4.26822
4.26841
4.26903
4.26681
4.26126
4.25208
4.24168
4.232
4.22524
4.22197
4.2218
4.22839
4.24041
4.25085
4.25609
4.25787
4.25838
4.2581
4.26041
4.26506
4.26838
4.27045
4.271
4.27021
4.26726
1
1
1
1
1
1
1
1
1
1
1
1
1
1
1
1
1
1
1
1
0.999867
1.00479
1.05543
1.30469
1.69366
2.36467
3.03997
3.70146
4.1987
4.30307
4.38136
4.37639
4.34034
4.29576
4.2081
4.12096
4.11375
4.13576
4.18202
4.2098
4.23185
4.24838
4.25276
4.24931
4.23028
4.21572
4.20468
4.19755
4.19684
4.20127
4.20434
4.20966
4.2234
4.23945
4.25478
4.26921
4.2776
4.28005
4.27843
4.2734
4.26234
4.24691
4.2329
4.22334
4.21908
4.21949
4.22624
4.23626
4.24297
4.24716
4.25052
4.25296
4.25527
4.25938
4.26537
4.27146
4.27494
4.27499
4.27407
4.26987
1
1
1
1
1
1
1
1
1
1
1
1
1
1
1
1
1
1
1
1
1
0.999993
1.00001
1.00009
1.00463
1.05801
1.30815
1.69731
2.38047
3.04645
3.74439
4.11677
4.13865
4.19079
4.18891
4.14674
4.13728
4.16488
4.19741
4.21129
4.22194
4.23101
4.23386
4.23989
4.25025
4.2587
4.25894
4.24743
4.23426
4.22344
4.21373
4.20759
4.20556
4.20789
4.21567
4.22873
4.2454
4.25973
4.26686
4.26858
4.2687
4.26714
4.26095
4.25294
4.24509
4.24124
4.24279
4.24883
4.25388
4.25458
4.25332
4.25105
4.25133
4.25356
4.25669
4.2601
4.26173
4.26124
4.26137
4.25897
1
1
1
1
1
1
1
1
1
1
1
1
1
1
1
1
1
1
1
1
1
1
1
1
0.999997
0.999942
1.00042
1.00622
1.07791
1.32954
1.76284
2.44064
3.07685
3.80198
4.08344
4.18517
4.25675
4.26104
4.23367
4.19218
4.15209
4.13361
4.14158
4.1827
4.22333
4.24581
4.26325
4.28369
4.29617
4.29387
4.28051
4.25408
4.22267
4.20406
4.19942
4.20078
4.20907
4.21707
4.2243
4.2328
4.24287
4.25567
4.26643
4.2676
4.26602
4.26784
4.27352
4.27496
4.27175
4.26296
4.25186
4.24284
4.24215
4.2412
4.24025
4.24034
4.2413
4.24217
4.24351
4.2464
1
1
1
1
1
1
1
1
1
1
1
1
1
1
1
1
1
1
1
1
1
1
1
1
1
0.999999
0.999999
1
0.999944
1.00079
1.00963
1.10664
1.36379
1.83009
2.55262
3.23717
3.93478
4.11839
4.10558
4.17436
4.16376
4.10991
4.0951
4.10416
4.13492
4.18072
4.22864
4.2643
4.2808
4.28984
4.29461
4.2954
4.28766
4.26376
4.23461
4.21741
4.21085
4.20979
4.21124
4.21392
4.22017
4.22852
4.23991
4.25269
4.26042
4.2664
4.2728
4.27621
4.27556
4.27121
4.26309
4.25328
4.24159
4.23807
4.23738
4.23748
4.23933
4.24138
4.24193
4.2441
1
1
1
1
1
1
1
1
1
1
1
1
1
1
1
1
1
1
1
1
1
1
1
1
1
1
1
1
0.999998
0.999999
0.999992
1.00001
1.00152
1.0164
1.16431
1.47663
2.07907
2.75509
3.43293
3.98025
4.16305
4.1546
4.18025
4.13754
4.11933
4.12596
4.14248
4.16589
4.19183
4.22066
4.25047
4.27036
4.27698
4.28086
4.28229
4.27883
4.27026
4.25551
4.23364
4.21676
4.21386
4.21886
4.22527
4.22883
4.23169
4.23751
4.24896
4.26012
4.264
4.26215
4.25687
4.25556
4.25682
4.2572
4.2546
4.25178
4.24861
4.2451
4.24349
4.24575
1
1
1
1
1
1
1
1
1
1
1
1
1
1
1
1
1
1
1
1
1
1
1
1
1
1
1
1
1
1
1
1
1
0.999974
1.00027
1.00388
1.04338
1.24684
1.61871
2.30716
3.00969
3.72316
4.08599
4.11951
4.16477
4.19997
4.16886
4.14241
4.12795
4.12794
4.14071
4.16461
4.20476
4.24277
4.27036
4.28826
4.29633
4.29758
4.29125
4.27877
4.26465
4.25182
4.23747
4.22487
4.22031
4.22329
4.23076
4.23818
4.24035
4.23906
4.23922
4.24494
4.25449
4.26118
4.26275
4.26201
4.26178
4.26125
4.25824
4.25292
1
1
1
1
1
1
1
1
1
1
1
1
1
1
1
1
1
1
1
1
1
1
1
1
1
1
1
1
1
1
1
1
1
0.999999
0.999998
1
0.999973
1.00097
1.00918
1.10082
1.39257
1.93877
2.6647
3.34421
3.91239
4.17246
4.21371
4.22946
4.20776
4.15155
4.12589
4.12182
4.13199
4.15709
4.18144
4.216
4.25458
4.27938
4.28619
4.28801
4.28734
4.2861
4.28168
4.26659
4.24595
4.23209
4.22776
4.22817
4.22758
4.2265
4.22804
4.23278
4.24048
4.25161
4.25951
4.26055
4.26251
4.26532
4.26591
4.26061
1
1
1
1
1
1
1
1
1
1
1
1
1
1
1
1
1
1
1
1
1
1
1
1
1
1
1
1
1
1
1
1
1
1
1
1
0.999999
0.999999
0.999986
1.00014
1.00355
1.03449
1.24436
1.64822
2.31366
3.04814
3.72943
4.11699
4.18786
4.20754
4.25292
4.23584
4.18835
4.16359
4.15912
4.1643
4.18145
4.20253
4.21668
4.23377
4.25889
4.2762
4.28117
4.27456
4.26822
4.27005
4.26857
4.26422
4.25558
4.24125
4.22795
4.22512
4.23291
4.24569
4.25389
4.25517
4.25646
4.25936
4.2609
4.2569
1
1
1
1
1
1
1
1
1
1
1
1
1
1
1
1
1
1
1
1
1
1
1
1
1
1
1
1
1
1
1
1
1
1
1
1
1
1
0.999999
0.999999
1
0.999984
1.00153
1.01283
1.11472
1.47245
2.08342
2.82929
3.48403
3.97652
4.19217
4.23559
4.26296
4.2726
4.25856
4.22649
4.19614
4.1834
4.18044
4.18129
4.18915
4.19924
4.21751
4.2388
4.25568
4.26647
4.27325
4.27648
4.27741
4.27048
4.25476
4.24473
4.24289
4.24655
4.24934
4.24967
4.2495
4.25025
4.25041
4.24742
1
1
1
1
1
1
1
1
1
1
1
1
1
1
1
1
1
1
1
1
1
1
1
1
1
1
1
1
1
1
1
1
1
1
1
1
1
1
1
1
1
0.999999
1
0.999986
1.00038
1.00721
1.05855
1.36477
1.92603
2.65544
3.32049
3.85189
4.17542
4.24409
4.26128
4.30265
4.31424
4.29355
4.25389
4.21153
4.18415
4.17951
4.18249
4.1939
4.20775
4.22429
4.25248
4.27157
4.2764
4.2694
4.25976
4.25911
4.26025
4.26037
4.25859
4.25546
4.25245
4.25071
4.24942
4.24396
1
1
1
1
1
1
1
1
1
1
1
1
1
1
1
1
1
1
1
1
1
1
1
1
1
1
1
1
1
1
1
1
1
1
1
1
1
1
1
1
1
1
1
0.999999
0.999999
0.999991
1.00008
1.00547
1.03804
1.25197
1.8046
2.59938
3.2747
3.76109
4.03977
4.23178
4.3006
4.31428
4.3081
4.29124
4.27815
4.25971
4.23382
4.21328
4.20601
4.21472
4.22901
4.23636
4.24045
4.23641
4.23854
4.24567
4.25153
4.25339
4.25227
4.2493
4.24851
4.25045
4.25223
4.25249
1
1
1
1
1
1
1
1
1
1
1
1
1
1
1
1
1
1
1
1
1
1
1
1
1
1
1
1
1
1
1
1
1
1
1
1
1
1
1
1
1
1
1
1
1
0.999999
0.999999
0.999998
1.00001
1.00317
1.03071
1.20552
1.76798
2.63717
3.27984
3.70759
4.01909
4.20898
4.24073
4.26584
4.29427
4.31252
4.30587
4.28952
4.27165
4.25944
4.25462
4.24785
4.22952
4.21927
4.21921
4.22702
4.23605
4.23971
4.23974
4.23943
4.24066
4.24226
4.24368
4.24835
1
1
1
1
1
1
1
1
1
1
1
1
1
1
1
1
1
1
1
1
1
1
1
1
1
1
1
1
1
1
1
1
1
1
1
1
1
1
1
1
1
1
1
1
1
1
1
1
0.999999
1
1.00001
1.00236
1.03439
1.19973
1.76202
2.61814
3.41993
3.81549
3.95597
4.03414
4.13951
4.23162
4.28978
4.29833
4.29866
4.28979
4.29114
4.29185
4.2757
4.24804
4.2348
4.2352
4.23836
4.2415
4.24071
4.23475
4.22954
4.22921
4.2312
4.2411
1
1
1
1
1
1
1
1
1
1
1
1
1
1
1
1
1
1
1
1
1
1
1
1
1
1
1
1
1
1
1
1
1
1
1
1
1
1
1
1
1
1
1
1
1
1
1
1
1
1
1
0.999997
1.00004
1.00215
1.04002
1.20546
1.76686
2.73734
3.73685
3.8866
3.9835
4.09203
4.18155
4.18608
4.18366
4.20363
4.24475
4.27489
4.26344
4.24883
4.2506
4.25405
4.26101
4.26786
4.26586
4.25363
4.23917
4.2319
4.23143
4.23685
1
1
1
1
1
1
1
1
1
1
1
1
1
1
1
1
1
1
1
1
1
1
1
1
1
1
1
1
1
1
1
1
1
1
1
1
1
1
1
1
1
1
1
1
1
1
1
1
1
1
1
1
1
0.999996
1.00008
1.00234
1.04628
1.26795
1.98473
2.94916
3.6977
4.15769
4.20333
4.17014
4.12362
4.13177
4.15884
4.197
4.21527
4.20795
4.20905
4.23751
4.26595
4.27575
4.27273
4.26431
4.26389
4.26427
4.2613
4.24686
1
1
1
1
1
1
1
1
1
1
1
1
1
1
1
1
1
1
1
1
1
1
1
1
1
1
1
1
1
1
1
1
1
1
1
1
1
1
1
1
1
1
1
1
1
1
1
1
1
1
1
1
1
0.999999
1
0.999996
1.00016
1.00458
1.08062
1.41719
2.1591
3.14546
3.96543
4.21404
4.19269
4.2466
4.2619
4.23267
4.21355
4.19939
4.18862
4.20304
4.22424
4.23206
4.23658
4.24221
4.2541
4.26932
4.27369
4.26447
1
1
1
1
1
1
1
1
1
1
1
1
1
1
1
1
1
1
1
1
1
1
1
1
1
1
1
1
1
1
1
1
1
1
1
1
1
1
1
1
1
1
1
1
1
1
1
1
1
1
1
1
1
1
1
0.999999
0.999999
0.999996
1.0006
1.00997
1.13509
1.57322
2.49009
3.42771
3.92118
4.18081
4.30276
4.3091
4.29822
4.27607
4.2609
4.2475
4.23338
4.21451
4.19672
4.19193
4.20319
4.23339
4.25913
4.26198
1
1
1
1
1
1
1
1
1
1
1
1
1
1
1
1
1
1
1
1
1
1
1
1
1
1
1
1
1
1
1
1
1
1
1
1
1
1
1
1
1
1
1
1
1
1
1
1
1
1
1
1
1
1
1
1
1
0.999999
0.999999
1
1.0016
1.02153
1.23649
2.0076
2.99758
3.54491
4.00024
4.21809
4.22892
4.26671
4.31248
4.33564
4.33946
4.30838
4.2513
4.20629
4.20294
4.21768
4.23488
4.24751
1
1
1
1
1
1
1
1
1
1
1
1
1
1
1
1
1
1
1
1
1
1
1
1
1
1
1
1
1
1
1
1
1
1
1
1
1
1
1
1
1
1
1
1
1
1
1
1
1
1
1
1
1
1
1
1
1
1
1
1
0.999998
1.00006
1.00616
1.07818
1.52224
2.35989
3.44832
3.93247
3.9502
4.04185
4.15761
4.26478
4.30834
4.30404
4.288
4.267
4.24366
4.23372
4.23387
4.24015
1
1
1
1
1
1
1
1
1
1
1
1
1
1
1
1
1
1
1
1
1
1
1
1
1
1
1
1
1
1
1
1
1
1
1
1
1
1
1
1
1
1
1
1
1
1
1
1
1
1
1
1
1
1
1
1
1
1
1
1
1
1
1
1.00072
1.02508
1.19572
1.78803
2.98826
3.87709
4.01399
4.03214
4.09449
4.18095
4.22421
4.23337
4.24667
4.25379
4.24327
4.24141
4.25088
1
1
1
1
1
1
1
1
1
1
1
1
1
1
1
1
1
1
1
1
1
1
1
1
1
1
1
1
1
1
1
1
1
1
1
1
1
1
1
1
1
1
1
1
1
1
1
1
1
1
1
1
1
1
1
1
1
1
1
1
1
1
1
0.999999
1.00009
1.00414
1.0593
1.45073
2.53766
3.58656
4.06807
4.14705
4.17745
4.19434
4.20181
4.19822
4.20299
4.2025
4.20041
4.21883
1
1
1
1
1
1
1
1
1
1
1
1
1
1
1
1
1
1
1
1
1
1
1
1
1
1
1
1
1
1
1
1
1
1
1
1
1
1
1
1
1
1
1
1
1
1
1
1
1
1
1
1
1
1
1
1
1
1
1
1
1
1
1
1
1
1
1.00051
1.02519
1.30456
2.05332
3.12139
3.91811
4.24901
4.31194
4.30411
4.26323
4.23351
4.214
4.18309
4.17447
1
1
1
1
1
1
1
1
1
1
1
1
1
1
1
1
1
1
1
1
1
1
1
1
1
1
1
1
1
1
1
1
1
1
1
1
1
1
1
1
1
1
1
1
1
1
1
1
1
1
1
1
1
1
1
1
1
1
1
1
1
1
1
1
1
1
1
1.00024
1.00959
1.1301
1.71841
2.75328
3.60552
4.07245
4.22451
4.28547
4.32714
4.33566
4.30686
4.22963
1
1
1
1
1
1
1
1
1
1
1
1
1
1
1
1
1
1
1
1
1
1
1
1
1
1
1
1
1
1
1
1
1
1
1
1
1
1
1
1
1
1
1
1
1
1
1
1
1
1
1
1
1
1
1
1
1
1
1
1
1
1
1
1
1
1
1
1
1.00002
1.00271
1.04943
1.41422
2.46301
3.55581
3.8156
3.98981
4.17939
4.32347
4.35108
4.32776
1
1
1
1
1
1
1
1
1
1
1
1
1
1
1
1
1
1
1
1
1
1
1
1
1
1
1
1
1
1
1
1
1
1
1
1
1
1
1
1
1
1
1
1
1
1
1
1
1
1
1
1
1
1
1
1
1
1
1
1
1
1
1
1
1
1
1
1
1
1
1.00054
1.0236
1.25364
2.09897
3.52541
3.86292
3.92551
4.08059
4.28718
4.34837
1
1
1
1
1
1
1
1
1
1
1
1
1
1
1
1
1
1
1
1
1
1
1
1
1
1
1
1
1
1
1
1
1
1
1
1
1
1
1
1
1
1
1
1
1
1
1
1
1
1
1
1
1
1
1
1
1
1
1
1
1
1
1
1
1
1
1
1
1
1
1
1.00021
1.01076
1.15289
1.93403
3.32406
3.82333
3.94101
4.12337
4.30468
1
1
1
1
1
1
1
1
1
1
1
1
1
1
1
1
1
1
1
1
1
1
1
1
1
1
1
1
1
1
1
1
1
1
1
1
1
1
1
1
1
1
1
1
1
1
1
1
1
1
1
1
1
1
1
1
1
1
1
1
1
1
1
1
1
1
1
1
1
1
1
1
1.00007
1.0053
1.11075
1.76028
3.1025
3.69984
3.98709
4.24418
1
1
1
1
1
1
1
1
1
1
1
1
1
1
1
1
1
1
1
1
1
1
1
1
1
1
1
1
1
1
1
1
1
1
1
1
1
1
1
1
1
1
1
1
1
1
1
1
1
1
1
1
1
1
1
1
1
1
1
1
1
1
1
1
1
1
1
1
1
1
1
1
1
1.00003
1.00304
1.07681
1.61289
2.78412
3.62932
4.13805
1
1
1
1
1
1
1
1
1
1
1
1
1
1
1
1
1
1
1
1
1
1
1
1
1
1
1
1
1
1
1
1
1
1
1
1
1
1
1
1
1
1
1
1
1
1
1
1
1
1
1
1
1
1
1
1
1
1
1
1
1
1
1
1
1
1
1
1
1
1
1
1
1
1
1.00001
1.0018
1.04858
1.48097
2.54332
3.78784
1
1
1
1
1
1
1
1
1
1
1
1
1
1
1
1
1
1
1
1
1
1
1
1
1
1
1
1
1
1
1
1
1
1
1
1
1
1
1
1
1
1
1
1
1
1
1
1
1
1
1
1
1
1
1
1
1
1
1
1
1
1
1
1
1
1
1
1
1
1
1
1
1
1
1
1.00001
1.00087
1.03939
1.34551
2.86365
1
1
1
1
1
1
1
1
1
1
1
1
1
1
1
1
1
1
1
1
1
1
1
1
1
1
1
1
1
1
1
1
1
1
1
1
1
1
1
1
1
1
1
1
1
1
1
1
1
1
1
1
1
1
1
1
1
1
1
1
1
1
1
1
1
1
1
1
1
1
1
1
1
1
1
1
1
1.00099
1.02065
1.84159
1
1
1
1
1
1
1
1
1
1
1
1
1
1
1
1
1
1
1
1
1
1
1
1
1
1
1
1
1
1
1
1
1
1
1
1
1
1
1
1
1
1
1
1
1
1
1
1
1
1
1
1
1
1
1
1
1
1
1
1
1
1
1
1
1
1
1
1
1
1
1
1
1
1
1
1
1
1.00001
1.00082
1.23879
1
1
1
1
1
1
1
1
1
1
1
1
1
1
1
1
1
1
1
1
1
1
1
1
1
1
1
1
1
1
1
1
1
1
1
1
1
1
1
1
1
1
1
1
1
1
1
1
1
1
1
1
1
1
1
1
1
1
1
1
1
1
1
1
1
1
1
1
1
1
1
1
1
1
1
1
1
1
1.00003
1.04324
1
1
1
1
1
1
1
1
1
1
1
1
1
1
1
1
1
1
1
1
1
1
1
1
1
1
1
1
1
1
1
1
1
1
1
1
1
1
1
1
1
1
1
1
1
1
1
1
1
1
1
1
1
1
1
1
1
1
1
1
1
1
1
1
1
1
1
1
1
1
1
1
1
1
1
1
1
1
1
1.00488
)
;

boundaryField
{
    inlet
    {
        type            fixedValue;
        value           uniform 1;
    }
    outlet
    {
        type            zeroGradient;
    }
    bottom
    {
        type            symmetryPlane;
    }
    top
    {
        type            symmetryPlane;
    }
    obstacle
    {
        type            zeroGradient;
    }
    defaultFaces
    {
        type            empty;
    }
}


// ************************************************************************* //
