/*--------------------------------*- C++ -*----------------------------------*\
| =========                 |                                                 |
| \\      /  F ield         | OpenFOAM: The Open Source CFD Toolbox           |
|  \\    /   O peration     | Version:  2206                                  |
|   \\  /    A nd           | Website:  www.openfoam.com                      |
|    \\/     M anipulation  |                                                 |
\*---------------------------------------------------------------------------*/
FoamFile
{
    version     2.0;
    format      ascii;
    arch        "LSB;label=32;scalar=64";
    class       volScalarField;
    location    "0.08";
    object      rho;
}
// * * * * * * * * * * * * * * * * * * * * * * * * * * * * * * * * * * * * * //

dimensions      [1 -3 0 0 0 0 0];

internalField   nonuniform List<scalar> 
4800
(
1.40001
1.40001
1.40001
1.40001
1.40001
1.40001
1.40001
1.40001
1.40001
1.40001
1.40001
1.40001
1.40001
1.40001
1.40001
1.40001
1.40001
1.40001
1.40001
1.40001
1.40001
1.40001
1.40001
1.40001
1.40001
1.40001
1.40001
1.40001
1.40001
1.40001
1.40001
1.40001
1.40001
1.40001
1.40001
1.40001
1.40001
1.40001
1.40001
1.40001
1.40001
1.40001
1.40001
1.40001
1.40001
1.40001
1.40001
1.40001
1.40001
1.40001
1.40001
1.40001
1.40001
1.40001
1.40001
1.40001
1.40001
1.40001
1.40001
1.40001
1.40001
1.40001
1.40001
1.40001
1.40001
1.40001
1.40001
1.40001
1.40001
1.40001
1.40001
1.40001
1.40001
1.40001
1.40001
1.40001
1.40001
1.40001
1.40001
1.40001
1.40001
1.40001
1.40001
1.40001
1.40001
1.40001
1.40001
1.40001
1.40001
1.40001
1.40001
1.40001
1.40001
1.40001
1.40001
1.40001
1.40001
1.40001
1.40001
1.40001
1.40001
1.40001
1.40001
1.40001
1.40001
1.40001
1.40001
1.40001
1.40001
1.40001
1.40001
1.40001
1.40001
1.40001
1.40001
1.40001
1.40001
1.40001
1.40001
1.40001
1.40001
1.40001
1.40001
1.40001
1.40001
1.40001
1.40001
1.40001
1.40001
1.40001
1.40001
1.40001
1.40001
1.40001
1.40001
1.40001
1.40001
1.40001
1.40001
1.40001
1.40001
1.40001
1.40001
1.40001
1.40001
1.40001
1.40001
1.40001
1.40001
1.40001
1.40001
1.40001
1.40001
1.40001
1.40001
1.40001
1.40001
1.40001
1.40001
1.40001
1.40001
1.40001
1.40001
1.40001
1.40001
1.40001
1.40001
1.40001
1.40001
1.40001
1.40001
1.40001
1.40001
1.40001
1.40001
1.40001
1.40001
1.40001
1.40001
1.40001
1.40001
1.40001
1.40001
1.40001
1.40001
1.40001
1.40001
1.40001
1.40001
1.40001
1.40001
1.40001
1.40001
1.40001
1.40001
1.40001
1.40001
1.40001
1.40001
1.40001
1.40001
1.40001
1.40001
1.40001
1.40001
1.40001
1.40001
1.40001
1.40001
1.40001
1.40001
1.40001
1.40001
1.40001
1.40001
1.40001
1.40001
1.40001
1.40001
1.40001
1.40001
1.40001
1.40001
1.40001
1.40001
1.40001
1.40001
1.40001
1.40001
1.40001
1.40001
1.40001
1.40001
1.40001
1.40001
1.40001
1.40001
1.40001
1.40001
1.40001
1.40001
1.40001
1.40001
1.40001
1.40001
1.40001
1.40001
1.40001
1.40001
1.40001
1.40001
1.40001
1.40001
1.40001
1.40001
1.40001
1.40001
1.40001
1.40001
1.40001
1.40001
1.40001
1.40001
1.40001
1.40001
1.40001
1.40001
1.40001
1.40001
1.40001
1.40001
1.40001
1.40001
1.40001
1.40001
1.40001
1.40001
1.40001
1.40001
1.40001
1.40001
1.40001
1.40001
1.40001
1.40001
1.40001
1.40001
1.40001
1.40001
1.40001
1.40001
1.40001
1.40001
1.40001
1.40001
1.40001
1.40001
1.40001
1.40001
1.40001
1.40001
1.40001
1.40001
1.40001
1.40001
1.40001
1.40001
1.40001
1.40001
1.40001
1.40001
1.40001
1.40001
1.40001
1.40001
1.40001
1.40001
1.40001
1.40001
1.40001
1.40001
1.40001
1.40001
1.40001
1.40001
1.40001
1.40001
1.40001
1.40001
1.40001
1.40001
1.40001
1.40001
1.40001
1.40001
1.40001
1.40001
1.40001
1.40001
1.40001
1.40001
1.40001
1.40001
1.40001
1.40001
1.40001
1.40001
1.40001
1.40001
1.40001
1.40001
1.40001
1.40001
1.40001
1.40001
1.40001
1.40001
1.40001
1.40001
1.40001
1.40001
1.40001
1.40001
1.40001
1.40001
1.40001
1.40001
1.40001
1.40001
1.40001
1.40001
1.40001
1.40001
1.40001
1.40001
1.40001
1.40001
1.40001
1.40001
1.40001
1.40001
1.40001
1.40001
1.40001
1.40001
1.40001
1.40001
1.40001
1.40001
1.40001
1.40001
1.40001
1.40001
1.40001
1.40001
1.40001
1.40001
1.40001
1.40001
1.40001
1.40001
1.40001
1.40001
1.40001
1.40001
1.40001
1.40001
1.40001
1.40001
1.40001
1.40001
1.40001
1.40001
1.40001
1.40001
1.40001
1.40001
1.40001
1.40001
1.40001
1.40001
1.40001
1.40001
1.40001
1.40001
1.40001
1.40001
1.40001
1.40001
1.40001
1.40001
1.40001
1.40001
1.40001
1.40001
1.40001
1.40001
1.40001
1.40001
1.40001
1.40001
1.40001
1.40001
1.40001
1.40001
1.40001
1.40001
1.40001
1.40001
1.40001
1.40001
1.40001
1.40001
1.40001
1.40001
1.40001
1.40001
1.40001
1.40001
1.40001
1.40001
1.40001
1.40001
1.40001
1.40001
1.40001
1.40001
1.40001
1.40001
1.40001
1.40001
1.40001
1.40001
1.40001
1.40001
1.40001
1.40001
1.40001
1.40001
1.40001
1.40001
1.40001
1.40001
1.40001
1.40001
1.40001
1.40001
1.40001
1.40001
1.40001
1.40001
1.40001
1.40001
1.40001
1.40001
1.40001
1.40001
1.40001
1.40001
1.40001
1.40001
1.40001
1.40001
1.40001
1.40001
1.40001
1.40001
1.40001
1.40001
1.40001
1.40001
1.40001
1.40001
1.40001
1.40001
1.40001
1.40001
1.40001
1.40001
1.40001
1.40001
1.40001
1.40001
1.40001
1.40001
1.40001
1.40001
1.40001
1.40001
1.40001
1.40001
1.40001
1.40001
1.40001
1.40001
1.40001
1.40001
1.40001
1.40001
1.40001
1.40001
1.40001
1.40001
1.40001
1.40001
1.40001
1.40001
1.40001
1.40001
1.40001
1.40001
1.40001
1.40001
1.40001
1.40001
1.40001
1.40001
1.40001
1.40001
1.40001
1.40001
1.40001
1.40001
1.40001
1.40001
1.40001
1.40001
1.40001
1.40001
1.40001
1.40001
1.40001
1.40001
1.40001
1.40001
1.40001
1.40001
1.40001
1.40001
1.40001
1.40001
1.40001
1.40001
1.40001
1.40001
1.40001
1.40001
1.40001
1.40001
1.40001
1.40001
1.40001
1.40001
1.40001
1.40001
1.40001
1.40001
1.40001
1.40001
1.40001
1.40001
1.40001
1.40001
1.40001
1.40001
1.40001
1.40001
1.40001
1.40001
1.40001
1.40001
1.40001
1.40001
1.40001
1.40001
1.40001
1.40001
1.40001
1.40001
1.40001
1.40001
1.40001
1.40001
1.40001
1.40001
1.40001
1.40001
1.40001
1.40001
1.40001
1.40001
1.40001
1.40001
1.40001
1.40001
1.40001
1.40001
1.40001
1.40001
1.40001
1.40001
1.40001
1.40001
1.40001
1.40001
1.40001
1.40001
1.40001
1.40001
1.40001
1.40001
1.40001
1.40001
1.40001
1.40001
1.40001
1.40001
1.40001
1.40001
1.40001
1.40001
1.40001
1.40001
1.40001
1.40001
1.40001
1.40001
1.40001
1.40001
1.40001
1.40001
1.40001
1.40001
1.40001
1.40001
1.40001
1.40001
1.40001
1.40001
1.40001
1.40001
1.40001
1.40001
1.40001
1.40001
1.40001
1.40001
1.40001
1.40001
1.40001
1.40001
1.40001
1.40001
1.40001
1.40001
1.40001
1.40001
1.40001
1.40001
1.40001
1.40001
1.40001
1.40001
1.40001
1.40001
1.40001
1.40001
1.40001
1.40001
1.40001
1.40001
1.40001
1.40001
1.40001
1.40001
1.40001
1.40001
1.40001
1.40001
1.40001
1.40001
1.40001
1.40001
1.40001
1.40001
1.40001
1.40001
1.40001
1.40001
1.40001
1.40001
1.40001
1.40001
1.40001
1.40001
1.40001
1.40001
1.40001
1.40001
1.40001
1.40001
1.40001
1.40001
1.40001
1.40001
1.40001
1.40001
1.40001
1.40001
1.40001
1.40001
1.40001
1.40001
1.40001
1.40001
1.40001
1.40001
1.40001
1.40001
1.40001
1.40001
1.40001
1.40001
1.40001
1.40001
1.40001
1.40001
1.40001
1.40001
1.40001
1.40001
1.40001
1.40001
1.40001
1.40001
1.40001
1.40001
1.40001
1.40001
1.40001
1.40001
1.40001
1.40001
1.40001
1.40001
1.40001
1.40001
1.40001
1.40001
1.40001
1.40001
1.40001
1.40001
1.40001
1.40001
1.40001
1.40001
1.40001
1.40001
1.40001
1.40001
1.40001
1.40001
1.40001
1.40001
1.40001
1.40001
1.40001
1.40001
1.40001
1.40001
1.40001
1.40001
1.40001
1.40001
1.40001
1.40001
1.40001
1.40001
1.40001
1.40001
1.40001
1.40001
1.40001
1.40001
1.40001
1.40001
1.40001
1.40001
1.40001
1.40001
1.40001
1.40001
1.40001
1.40001
1.40001
1.40001
1.40001
1.40001
1.40001
1.40001
1.40001
1.40001
1.40001
1.40001
1.40001
1.40001
1.40001
1.40001
1.40001
1.40001
1.40001
1.40001
1.40001
1.40001
1.40001
1.40001
1.40001
1.40001
1.40001
1.40001
1.40001
1.40001
1.40001
1.40001
1.40001
1.40001
1.40001
1.40001
1.40001
1.40001
1.40001
1.40001
1.40001
1.40001
1.40001
1.40001
1.40001
1.40001
1.40001
1.40001
1.40001
1.40001
1.40001
1.40001
1.40001
1.40001
1.40001
1.40001
1.40001
1.40001
1.40001
1.40001
1.40001
1.40001
1.40001
1.40001
1.40001
1.40001
1.40001
1.40001
1.40001
1.40001
1.40001
1.40001
1.40001
1.40001
1.40001
1.40001
1.40001
1.40001
1.40001
1.40001
1.40001
1.40001
1.40001
1.40001
1.40001
1.40001
1.40001
1.40001
1.40001
1.40001
1.40001
1.40001
1.40001
1.40001
1.40001
1.40001
1.40001
1.40001
1.40001
1.40001
1.40001
1.40001
1.40001
1.40001
1.40001
1.40001
1.40001
1.40001
1.40001
1.40001
1.40001
1.40001
1.40001
1.40001
1.40001
1.40001
1.40001
1.40001
1.40001
1.40001
1.40001
1.40001
1.40001
1.40001
1.40001
1.40001
1.40001
1.40001
1.40001
1.40001
1.40001
1.40001
1.40001
1.40001
1.40001
1.40001
1.40001
1.40001
1.40001
1.40001
1.40001
1.40001
1.40001
1.40001
1.40001
1.40001
1.40001
1.40001
1.40001
1.40001
1.40001
1.40001
1.40001
1.40001
1.40001
1.40001
1.40001
1.40001
1.40001
1.40001
1.40001
1.40001
1.40001
1.40001
1.40001
1.40001
1.40001
1.40001
1.40001
1.40001
1.40001
1.40001
1.40001
1.40001
1.40001
1.40001
1.40001
1.40001
1.40001
1.40001
1.40001
1.40001
1.40001
1.40001
1.40001
1.40001
1.40001
1.40001
1.40001
1.40001
1.40001
1.40001
1.40001
1.40001
1.40001
1.40001
1.40001
1.40001
1.40001
1.40001
1.40001
1.40001
1.40001
1.40001
1.40001
1.40001
1.40001
1.40001
1.40001
1.40001
1.40001
1.40001
1.40001
1.40001
1.40001
1.40001
1.40001
1.40001
1.40001
1.40001
1.40001
1.40001
1.40001
1.40001
1.40001
1.40001
1.40001
1.40001
1.40001
1.40001
1.40001
1.40001
1.40001
1.40001
1.40001
1.40001
1.40001
1.40001
1.40001
1.40001
1.40001
1.40001
1.40001
1.40001
1.40001
1.40001
1.40001
1.40001
1.40001
1.40001
1.40001
1.40001
1.40001
1.40001
1.40001
1.40001
1.40001
1.40001
1.40001
1.40001
1.40001
1.40001
1.40001
1.40001
1.40001
1.40001
1.40001
1.40001
1.40001
1.40001
1.40001
1.40001
1.40001
1.40001
1.40001
1.40001
1.40001
1.40001
1.40001
1.40001
1.40001
1.40001
1.40001
1.40001
1.40001
1.40001
1.40001
1.40001
1.40001
1.40001
1.40001
1.40001
1.40001
1.40001
1.40001
1.40001
1.40001
1.40001
1.40001
1.40001
1.40001
1.40001
1.40001
1.40001
1.40001
1.40001
1.40001
1.40001
1.40001
1.40001
1.40001
1.40001
1.40001
1.40001
1.40001
1.40001
1.40001
1.40001
1.40001
1.40001
1.40001
1.40001
1.40001
1.40001
1.40001
1.40001
1.40001
1.40001
1.40001
1.40001
1.40001
1.40001
1.40001
1.40001
1.40001
1.40001
1.40001
1.40001
1.40001
1.40001
1.40001
1.40001
1.40001
1.40001
1.40001
1.40001
1.40001
1.40001
1.40001
1.40001
1.40001
1.40001
1.40001
1.40001
1.40001
1.40001
1.40001
1.40001
1.40001
1.40001
1.40001
1.40001
1.40001
1.40001
1.40001
1.40001
1.40001
1.40001
1.40001
1.40001
1.40001
1.40001
1.40001
1.40001
1.40001
1.40001
1.40001
1.40001
1.40001
1.40001
1.40001
1.40001
1.40001
1.40001
1.40001
1.40001
1.40001
1.40001
1.40001
1.40001
1.40001
1.40001
1.40001
1.40001
1.40001
1.40001
1.40001
1.40001
1.40001
1.40001
1.40001
1.40001
1.40001
1.40001
1.40001
1.40001
1.40001
1.40001
1.40001
1.40001
1.40001
1.40001
1.40001
1.40001
1.40001
1.40001
1.40001
1.40001
1.40001
1.40001
1.40001
1.40001
1.40001
1.40001
1.40001
1.40001
1.40001
1.40001
1.40001
1.40001
1.40001
1.40001
1.40001
1.40001
1.40001
1.40001
1.40001
1.40001
1.40001
1.40001
1.40001
1.40001
1.40001
1.40001
1.40001
1.40001
1.40001
1.40001
1.40001
1.40001
1.40001
1.40001
1.40001
1.40001
1.40001
1.40001
1.40001
1.40001
1.40001
1.40001
1.40001
1.40001
1.40001
1.40001
1.40001
1.40001
1.40001
1.40001
1.40001
1.40001
1.40001
1.40001
1.40001
1.40001
1.40001
1.40001
1.40001
1.40001
1.40001
1.40001
1.40001
1.40001
1.40001
1.40001
1.40001
1.40001
1.40001
1.40001
1.40001
1.40001
1.40001
1.40001
1.40001
1.40001
1.40001
1.40001
1.40001
1.40001
1.40001
1.40001
1.40001
1.40001
1.40001
1.40001
1.40001
1.40001
1.40001
1.40001
1.40001
1.40001
1.40001
1.40001
1.40001
1.40001
1.40001
1.40001
1.40001
1.40001
1.40001
1.40001
1.40001
1.40001
1.40001
1.40001
1.40001
1.40001
1.40001
1.40001
1.40001
1.40001
1.40001
1.40001
1.40001
1.40001
1.40001
1.40001
1.40001
1.40001
1.40001
1.40001
1.40001
1.40001
1.40001
1.40001
1.40001
1.40001
1.40001
1.40001
1.40001
1.40001
1.40001
1.40001
1.40001
1.40001
1.40001
1.40001
1.40001
1.40001
1.40001
1.40001
1.40001
1.40001
1.40001
1.40001
1.40001
1.40001
1.40001
1.40001
1.40001
1.40001
1.40001
1.40001
1.40001
1.40001
1.40001
1.40001
1.40001
1.40001
1.40001
1.40001
1.40001
1.40001
1.40001
1.40001
1.40001
1.40001
1.40001
1.40001
1.40001
1.40001
1.40001
1.40001
1.40001
1.40001
1.40001
1.40001
1.40001
1.40001
1.40001
1.40001
1.40001
1.40001
1.40001
1.40001
1.40001
1.40001
1.40001
1.40001
1.40001
1.40001
1.40001
1.40001
1.40001
1.40001
1.40001
1.40001
1.40001
1.40001
1.40001
1.40001
1.40001
1.40001
1.40001
1.40001
1.40001
1.40001
1.40001
1.40001
1.40001
1.40001
1.40001
1.40001
1.40001
1.40001
1.40001
1.40001
1.40001
1.40001
1.40001
1.40001
1.40001
1.40001
1.40001
1.40001
1.40001
1.40001
1.40001
1.40001
1.40001
1.40001
1.40001
1.40001
1.40001
1.40001
1.40001
1.40001
1.40001
1.40001
1.40001
1.40001
1.40001
1.40001
1.40001
1.40001
1.40001
1.40001
1.40001
1.40001
1.40001
1.40001
1.40001
1.40001
1.40001
1.40001
1.40001
1.40001
1.40001
1.40001
1.40001
1.40001
1.40001
1.40001
1.40001
1.40001
1.40001
1.40001
1.40001
1.40001
1.40001
1.40001
1.40001
1.40001
1.40001
1.40001
1.40001
1.40001
1.40001
1.40001
1.40001
1.40001
1.40001
1.40001
1.40001
1.40001
1.40001
1.40001
1.40001
1.40001
1.40001
1.40001
1.40001
1.40001
1.40001
1.40001
1.40001
1.40001
1.40001
1.40001
1.40001
1.40001
1.40001
1.40001
1.40001
1.40001
1.40001
1.40001
1.40001
1.40001
1.40001
1.40001
1.40001
1.40001
1.40001
1.40001
1.40001
1.40001
1.40001
1.40001
1.40001
1.40001
1.40001
1.40001
1.40001
1.40001
1.40001
1.40001
1.40001
1.40001
1.40001
1.40001
1.40001
1.40001
1.40001
1.40001
1.40001
1.40001
1.40001
1.40001
1.40001
1.40001
1.40001
1.40001
1.40001
1.40001
1.40001
1.40001
1.40001
1.66015
2.04301
2.42161
2.784
3.09614
3.36079
3.52827
3.62906
3.58666
3.46799
3.29789
3.09782
2.98567
2.93164
2.90078
2.89397
2.90756
2.92561
2.94082
2.95608
2.96081
2.96499
2.96868
2.96998
2.97224
2.97438
2.9743
2.97316
2.97331
2.97364
2.97219
2.96936
2.96406
2.95934
2.95496
2.94793
2.93633
2.92139
2.90499
2.88776
2.87141
2.85686
2.84293
2.83426
2.83057
2.82721
2.82378
2.8208
2.81739
2.81299
2.80778
2.80134
2.79601
2.79256
2.79044
2.78955
2.78926
2.78991
2.79291
2.79635
2.79785
2.79702
2.79687
2.80171
2.80392
2.80181
2.79964
2.79883
2.79813
2.79745
2.79733
2.79885
2.8027
2.80738
2.81191
2.81608
2.81952
2.82247
2.82444
2.82865
1.40825
1.43425
1.51533
1.64605
1.8527
2.11865
2.4048
2.70918
2.90237
3.01389
3.10397
3.10387
3.08323
3.04388
3.02158
2.99062
2.96814
2.9435
2.92965
2.933
2.94031
2.94985
2.95853
2.96073
2.96228
2.96339
2.96426
2.9661
2.97069
2.97347
2.97311
2.97148
2.96764
2.9623
2.95566
2.94591
2.93251
2.91675
2.89963
2.88164
2.86481
2.85058
2.8379
2.82914
2.82492
2.8215
2.81835
2.8156
2.81164
2.80661
2.80155
2.79663
2.7925
2.78946
2.78747
2.7864
2.78589
2.78605
2.78806
2.79089
2.79245
2.7925
2.79333
2.79898
2.80148
2.7994
2.79809
2.79759
2.79727
2.79716
2.7977
2.79997
2.80393
2.80854
2.81304
2.81707
2.82041
2.82336
2.82504
2.82889
1.40001
1.40006
1.40076
1.4039
1.41787
1.459
1.57563
1.79445
2.18292
2.6538
2.93502
3.13195
3.18125
3.168
3.1363
3.08091
2.97834
2.91813
2.91177
2.9149
2.92835
2.94342
2.94369
2.94088
2.9375
2.93943
2.94522
2.95391
2.96505
2.96906
2.96894
2.96704
2.96256
2.95657
2.94888
2.93897
2.92598
2.90993
2.89224
2.87478
2.85972
2.84728
2.83614
2.82648
2.81995
2.81562
2.81217
2.80923
2.80554
2.8014
2.79813
2.79565
2.79276
2.79017
2.78848
2.78787
2.78809
2.78873
2.79002
2.79179
2.79219
2.79201
2.79375
2.79997
2.80111
2.79786
2.79562
2.79463
2.79419
2.79413
2.79486
2.79744
2.80151
2.80616
2.81076
2.81482
2.81813
2.82101
2.82325
2.82745
1.40001
1.4
1.40001
1.40001
1.40002
1.40018
1.40177
1.41004
1.46471
1.64048
2.00973
2.4633
2.8386
2.97252
3.03087
3.02623
3.0132
2.9933
2.9797
2.95842
2.94823
2.93713
2.91779
2.90684
2.90779
2.91422
2.9254
2.93925
2.95385
2.9553
2.95411
2.95043
2.9444
2.94078
2.93663
2.92815
2.91504
2.89807
2.87971
2.8634
2.84986
2.83841
2.82778
2.8183
2.81149
2.80668
2.80237
2.79795
2.79439
2.79199
2.7905
2.7894
2.78762
2.78555
2.78444
2.78424
2.78529
2.78714
2.78793
2.78788
2.78726
2.7867
2.7897
2.79708
2.79703
2.79318
2.79041
2.78932
2.78879
2.78862
2.78937
2.79214
2.79639
2.80126
2.80618
2.81046
2.81385
2.81658
2.8187
2.82319
1.40001
1.40001
1.40001
1.40001
1.40001
1.4
1.40001
1.4
1.40022
1.40317
1.43787
1.56179
1.88725
2.3172
2.70615
2.97636
3.03442
3.04857
3.03979
3.02142
2.96815
2.93198
2.9056
2.90079
2.90191
2.90631
2.91371
2.92414
2.93457
2.9378
2.93803
2.93647
2.93113
2.92684
2.92277
2.91431
2.90031
2.88238
2.86381
2.84804
2.83531
2.82531
2.81657
2.8088
2.80209
2.79641
2.79142
2.78679
2.78382
2.7818
2.78077
2.78075
2.78068
2.78028
2.77958
2.77877
2.77964
2.78343
2.78762
2.78974
2.78892
2.78705
2.78848
2.79588
2.79495
2.78938
2.78546
2.78371
2.783
2.78282
2.7837
2.78679
2.79143
2.79665
2.80178
2.80608
2.80914
2.81144
2.81308
2.81771
1.40001
1.40001
1.40001
1.40001
1.40001
1.40001
1.40001
1.4
1.4
1.4
1.40008
1.40156
1.41881
1.52509
1.7645
2.20232
2.57726
2.88181
2.96997
2.9692
2.98353
2.97627
2.95222
2.93901
2.92974
2.9195
2.9186
2.91907
2.92223
2.93081
2.93401
2.93327
2.92932
2.92368
2.91741
2.90748
2.89285
2.87537
2.85776
2.84191
2.82736
2.81618
2.80806
2.80167
2.79595
2.79002
2.78464
2.78067
2.77757
2.77522
2.77439
2.77512
2.77777
2.78027
2.78091
2.7805
2.77986
2.78132
2.78474
2.78693
2.7867
2.78528
2.78813
2.79426
2.7913
2.78549
2.78112
2.77869
2.77762
2.77731
2.77814
2.78126
2.78594
2.79099
2.79594
2.80033
2.80378
2.80642
2.80835
2.81347
1.40001
1.40001
1.40001
1.40001
1.40001
1.40001
1.40001
1.40001
1.40001
1.4
1.4
1.4
1.40002
1.40104
1.41015
1.48326
1.71254
2.09324
2.49754
2.77062
2.96196
2.99831
2.99596
2.98411
2.96143
2.93061
2.92505
2.92517
2.92667
2.9315
2.93813
2.93833
2.93349
2.92295
2.9153
2.90586
2.89159
2.87462
2.85714
2.84122
2.8263
2.8131
2.80378
2.79869
2.7945
2.78997
2.7854
2.78101
2.77642
2.77279
2.77068
2.77063
2.77374
2.77721
2.78076
2.78243
2.78144
2.78033
2.78131
2.78372
2.78489
2.78532
2.78875
2.79247
2.78826
2.78296
2.77891
2.77605
2.77483
2.77444
2.77503
2.77792
2.78248
2.78752
2.79248
2.79686
2.80047
2.80348
2.80561
2.81059
1.40001
1.40001
1.40001
1.40001
1.40001
1.40001
1.40001
1.40001
1.40001
1.40001
1.40001
1.4
1.4
1.4
1.40001
1.40055
1.4083
1.45217
1.66019
1.9971
2.44561
2.69244
2.86176
2.9307
2.93027
2.93927
2.9473
2.94562
2.94259
2.94144
2.94033
2.93686
2.93045
2.92423
2.91859
2.90916
2.89505
2.87848
2.86166
2.84557
2.82905
2.81075
2.79998
2.79621
2.79318
2.78994
2.78621
2.78185
2.7769
2.77218
2.769
2.76755
2.76956
2.77416
2.77929
2.78216
2.78164
2.77934
2.7784
2.78071
2.78368
2.78581
2.79017
2.78973
2.7849
2.7815
2.77836
2.77561
2.77432
2.77393
2.77453
2.77763
2.78274
2.78833
2.79316
2.79683
2.79973
2.80234
2.80429
2.8092
1.40001
1.40001
1.40001
1.40001
1.40001
1.40001
1.40001
1.40001
1.40001
1.40001
1.40001
1.40001
1.40001
1.4
1.4
1.40001
1.40001
1.40023
1.40635
1.44247
1.59154
1.94384
2.38946
2.70847
2.81712
2.90754
2.94338
2.95516
2.95102
2.92982
2.92097
2.91958
2.91826
2.91819
2.91615
2.90854
2.89519
2.87871
2.86249
2.84624
2.82887
2.81013
2.80029
2.79503
2.79076
2.78707
2.78433
2.78368
2.78569
2.78396
2.77948
2.77508
2.77166
2.77093
2.7754
2.78154
2.78466
2.78493
2.7837
2.78315
2.78405
2.78679
2.79268
2.79339
2.78821
2.78261
2.77874
2.77598
2.77456
2.77416
2.77472
2.77826
2.78416
2.7899
2.79423
2.79746
2.79987
2.80201
2.8038
2.80917
1.40001
1.40001
1.40001
1.40001
1.40001
1.40001
1.40001
1.40001
1.40001
1.40001
1.40001
1.40001
1.40001
1.40001
1.40001
1.40001
1.4
1.4
1.40001
1.40018
1.4035
1.43971
1.56412
1.90409
2.30444
2.70498
2.84885
2.90215
2.94879
2.93218
2.92424
2.92408
2.91879
2.91628
2.91507
2.9072
2.89307
2.87605
2.85949
2.84323
2.82708
2.80916
2.80036
2.79438
2.78916
2.78503
2.78283
2.78239
2.78464
2.78861
2.78573
2.78162
2.77959
2.77927
2.78155
2.78573
2.78847
2.78873
2.7872
2.78585
2.78567
2.78885
2.79631
2.79609
2.79044
2.78322
2.77819
2.77551
2.77416
2.77388
2.77536
2.77993
2.78593
2.79109
2.79499
2.79809
2.8003
2.80218
2.80409
2.80999
1.40001
1.40001
1.40001
1.40001
1.40001
1.40001
1.40001
1.40001
1.40001
1.40001
1.40001
1.40001
1.40001
1.40001
1.40001
1.40001
1.40001
1.40001
1.40001
1.40001
1.4
1.40019
1.40269
1.43401
1.55998
1.8468
2.26348
2.64765
2.88129
2.92011
2.953
2.96344
2.94808
2.9325
2.92763
2.91818
2.90211
2.88186
2.85944
2.84183
2.82495
2.81449
2.80746
2.8005
2.7934
2.78772
2.78288
2.77999
2.78157
2.7863
2.78696
2.78548
2.78488
2.78506
2.787
2.79036
2.79233
2.79232
2.79028
2.78857
2.78849
2.7921
2.7987
2.79745
2.79216
2.78656
2.78179
2.77935
2.77832
2.77773
2.77866
2.78279
2.78809
2.79265
2.79612
2.79884
2.80118
2.8036
2.80573
2.81192
1.40001
1.40001
1.40001
1.40001
1.40001
1.40001
1.40001
1.40001
1.40001
1.40001
1.40001
1.40001
1.40001
1.40001
1.40001
1.40001
1.40001
1.40001
1.40001
1.40001
1.4
1.40001
1.4
1.40017
1.4028
1.42396
1.55885
1.84168
2.26907
2.60139
2.87001
2.92794
2.95014
2.95462
2.95003
2.937
2.91702
2.89603
2.87127
2.84729
2.8324
2.82498
2.82043
2.81532
2.80952
2.80275
2.79527
2.7895
2.78576
2.78546
2.78881
2.79135
2.79237
2.79208
2.79212
2.79335
2.79519
2.79531
2.79315
2.79142
2.79149
2.79563
2.79922
2.79693
2.79332
2.78885
2.78444
2.78226
2.78152
2.78098
2.78176
2.78586
2.79082
2.79483
2.79831
2.80146
2.80404
2.80645
2.80868
2.81516
1.40001
1.40001
1.40001
1.40001
1.40001
1.40001
1.40001
1.40001
1.40001
1.40001
1.40001
1.40001
1.40001
1.40001
1.40001
1.40001
1.40001
1.40001
1.40001
1.40001
1.40001
1.40001
1.4
1.40001
1.4
1.4001
1.40327
1.42494
1.55783
1.874
2.31836
2.59574
2.80722
2.92829
2.92974
2.92281
2.90979
2.89233
2.86937
2.84115
2.82653
2.82081
2.81722
2.81591
2.8147
2.80979
2.80391
2.8005
2.79832
2.7969
2.79756
2.7999
2.79976
2.79775
2.79613
2.79565
2.7978
2.79838
2.79656
2.79539
2.79544
2.79847
2.80109
2.80048
2.79856
2.79486
2.79078
2.78823
2.78676
2.78587
2.78657
2.79016
2.79424
2.79737
2.80043
2.80373
2.80689
2.80993
2.81255
2.81947
1.40001
1.40001
1.40001
1.40001
1.40001
1.40001
1.40001
1.40001
1.40001
1.40001
1.40001
1.40001
1.40001
1.40001
1.40001
1.40001
1.40001
1.40001
1.40001
1.40001
1.40001
1.40001
1.40001
1.40001
1.4
1.4
1.40001
1.40011
1.40359
1.43379
1.55581
1.89924
2.32373
2.73418
2.80124
2.85524
2.87535
2.86263
2.8504
2.83233
2.81588
2.80857
2.80654
2.80725
2.8086
2.80522
2.80358
2.80368
2.8041
2.80416
2.80415
2.80327
2.80023
2.79816
2.797
2.7964
2.79854
2.80032
2.79889
2.79791
2.79803
2.8001
2.80124
2.80103
2.80046
2.79796
2.79458
2.79219
2.79056
2.79008
2.79168
2.79475
2.79767
2.80067
2.80381
2.80687
2.8101
2.81352
2.81658
2.82426
1.40001
1.40001
1.40001
1.40001
1.40001
1.40001
1.40001
1.40001
1.40001
1.40001
1.40001
1.40001
1.40001
1.40001
1.40001
1.40001
1.40001
1.40001
1.40001
1.40001
1.40001
1.40001
1.40001
1.40001
1.40001
1.40001
1.40001
1.4
1.40001
1.40021
1.40343
1.44273
1.5839
1.94524
2.38018
2.7358
2.85854
2.84831
2.85525
2.85164
2.83149
2.80851
2.8018
2.7986
2.79846
2.80019
2.8019
2.80147
2.801
2.80194
2.80263
2.80157
2.79847
2.79713
2.79665
2.79629
2.7985
2.80081
2.79951
2.79828
2.79842
2.80013
2.80053
2.80045
2.80105
2.79952
2.79634
2.79451
2.79309
2.79308
2.79573
2.79877
2.8011
2.80341
2.80614
2.80932
2.81293
2.81679
2.82033
2.82894
1.40001
1.40001
1.40001
1.40001
1.40001
1.40001
1.40001
1.40001
1.40001
1.40001
1.40001
1.40001
1.40001
1.40001
1.40001
1.40001
1.40001
1.40001
1.40001
1.40001
1.40001
1.40001
1.40001
1.40001
1.40001
1.40001
1.40001
1.40001
1.40001
1.4
1.40001
1.40035
1.40545
1.44929
1.65129
2.02168
2.40976
2.67614
2.82327
2.84877
2.84114
2.8319
2.82972
2.82111
2.8103
2.8053
2.80067
2.79539
2.79372
2.79773
2.79907
2.79746
2.79592
2.79528
2.79537
2.79607
2.7977
2.79924
2.79792
2.79681
2.79755
2.79968
2.79971
2.80001
2.80144
2.80002
2.79637
2.79525
2.79484
2.79604
2.7997
2.80278
2.80448
2.80604
2.80835
2.81155
2.81533
2.81951
2.82345
2.83303
1.40001
1.40001
1.40001
1.40001
1.40001
1.40001
1.40001
1.40001
1.40001
1.40001
1.40001
1.40001
1.40001
1.40001
1.40001
1.40001
1.40001
1.40001
1.40001
1.40001
1.40001
1.40001
1.40001
1.40001
1.40001
1.40001
1.40001
1.40001
1.40001
1.4
1.4
1.4
1.40001
1.40055
1.41028
1.46953
1.68696
2.06686
2.42243
2.66619
2.76113
2.81262
2.81714
2.81417
2.81463
2.81849
2.81273
2.80085
2.79507
2.79265
2.79503
2.79551
2.79378
2.79176
2.79124
2.79262
2.79428
2.7956
2.79457
2.79403
2.79595
2.79972
2.79953
2.79962
2.80146
2.80019
2.79701
2.7962
2.79695
2.79963
2.80365
2.80639
2.80741
2.80839
2.81034
2.81342
2.81719
2.82153
2.82578
2.83633
1.40001
1.40001
1.40001
1.40001
1.40001
1.40001
1.40001
1.40001
1.40001
1.40001
1.40001
1.40001
1.40001
1.40001
1.40001
1.40001
1.40001
1.40001
1.40001
1.40001
1.40001
1.40001
1.40001
1.40001
1.40001
1.40001
1.40001
1.40001
1.40001
1.40001
1.40001
1.4
1.4
1.4
1.40004
1.40098
1.41355
1.49175
1.73037
2.10094
2.44091
2.63161
2.71749
2.74819
2.79544
2.80785
2.80127
2.79584
2.7979
2.79785
2.79435
2.78909
2.78516
2.7833
2.783
2.78611
2.79079
2.79112
2.79039
2.79073
2.79339
2.79853
2.79859
2.7988
2.80086
2.80002
2.79839
2.79813
2.80039
2.80387
2.80665
2.80834
2.80877
2.80943
2.8116
2.81507
2.81904
2.82345
2.82781
2.83914
1.40001
1.40001
1.40001
1.40001
1.40001
1.40001
1.40001
1.40001
1.40001
1.40001
1.40001
1.40001
1.40001
1.40001
1.40001
1.40001
1.40001
1.40001
1.40001
1.40001
1.40001
1.40001
1.40001
1.40001
1.40001
1.40001
1.40001
1.40001
1.40001
1.40001
1.40001
1.40001
1.40001
1.4
1.4
1.4
1.40007
1.40171
1.42093
1.49908
1.73978
2.06888
2.4476
2.59288
2.71887
2.73976
2.75592
2.78049
2.79074
2.78961
2.78405
2.77618
2.77414
2.77409
2.77434
2.78033
2.78797
2.79237
2.7925
2.78921
2.78909
2.79375
2.79554
2.79674
2.80008
2.80016
2.79944
2.80011
2.80365
2.80741
2.80837
2.80863
2.80859
2.80911
2.81189
2.81606
2.82052
2.8253
2.82989
2.84214
1.40001
1.40001
1.40001
1.40001
1.40001
1.40001
1.40001
1.40001
1.40001
1.40001
1.40001
1.40001
1.40001
1.40001
1.40001
1.40001
1.40001
1.40001
1.40001
1.40001
1.40001
1.40001
1.40001
1.40001
1.40001
1.40001
1.40001
1.40001
1.40001
1.40001
1.40001
1.40001
1.40001
1.40001
1.40001
1.4
1.4
1.40001
1.40013
1.40197
1.42132
1.50677
1.71215
2.04952
2.37496
2.56224
2.72428
2.75874
2.75406
2.75953
2.76147
2.76474
2.77561
2.78301
2.77893
2.77742
2.78092
2.7872
2.78847
2.78554
2.78404
2.78701
2.79095
2.79452
2.80016
2.80063
2.79981
2.80087
2.80486
2.80933
2.81013
2.8077
2.80671
2.80741
2.81104
2.81656
2.82201
2.8273
2.83234
2.84575
1.40001
1.40001
1.40001
1.40001
1.40001
1.40001
1.40001
1.40001
1.40001
1.40001
1.40001
1.40001
1.40001
1.40001
1.40001
1.40001
1.40001
1.40001
1.40001
1.40001
1.40001
1.40001
1.40001
1.40001
1.40001
1.40001
1.40001
1.40001
1.40001
1.40001
1.40001
1.40001
1.40001
1.40001
1.40001
1.40001
1.40001
1.4
1.4
1.40001
1.40015
1.4024
1.4175
1.50344
1.6845
1.99783
2.34038
2.5452
2.66163
2.74568
2.75922
2.7688
2.7785
2.78193
2.77584
2.76488
2.76629
2.77202
2.77898
2.78161
2.78163
2.7838
2.78888
2.79225
2.79874
2.80011
2.79927
2.80069
2.80514
2.80939
2.81017
2.80897
2.80791
2.80818
2.81141
2.81707
2.82302
2.82914
2.83515
2.85007
1.40001
1.40001
1.40001
1.40001
1.40001
1.40001
1.40001
1.40001
1.40001
1.40001
1.40001
1.40001
1.40001
1.40001
1.40001
1.40001
1.40001
1.40001
1.40001
1.40001
1.40001
1.40001
1.40001
1.40001
1.40001
1.40001
1.40001
1.40001
1.40001
1.40001
1.40001
1.40001
1.40001
1.40001
1.40001
1.40001
1.40001
1.40001
1.40001
1.40001
1.4
1.40001
1.40011
1.40231
1.41557
1.48754
1.6529
1.95323
2.26919
2.51077
2.6407
2.68334
2.7369
2.76452
2.76004
2.75685
2.75836
2.76389
2.77059
2.78185
2.78692
2.7869
2.78686
2.78777
2.79489
2.7988
2.79836
2.80038
2.80558
2.80875
2.80967
2.80891
2.80807
2.80873
2.81231
2.8178
2.82408
2.83105
2.83802
2.85454
1.40001
1.40001
1.40001
1.40001
1.40001
1.40001
1.40001
1.40001
1.40001
1.40001
1.40001
1.40001
1.40001
1.40001
1.40001
1.40001
1.40001
1.40001
1.40001
1.40001
1.40001
1.40001
1.40001
1.40001
1.40001
1.40001
1.40001
1.40001
1.40001
1.40001
1.40001
1.40001
1.40001
1.40001
1.40001
1.40001
1.40001
1.40001
1.40001
1.40001
1.40001
1.40001
1.4
1.40001
1.40009
1.4017
1.41264
1.47108
1.6246
1.8928
2.25273
2.46478
2.60775
2.72328
2.75255
2.76986
2.77186
2.76115
2.75487
2.76842
2.78319
2.78436
2.78253
2.78254
2.78887
2.79747
2.79783
2.8
2.80582
2.80698
2.80804
2.80815
2.80752
2.80934
2.81415
2.81986
2.82615
2.83334
2.84118
2.85945
1.40001
1.40001
1.40001
1.40001
1.40001
1.40001
1.40001
1.40001
1.40001
1.40001
1.40001
1.40001
1.40001
1.40001
1.40001
1.40001
1.40001
1.40001
1.40001
1.40001
1.40001
1.40001
1.40001
1.40001
1.40001
1.40001
1.40001
1.40001
1.40001
1.40001
1.40001
1.40001
1.40001
1.40001
1.40001
1.40001
1.40001
1.40001
1.40001
1.40001
1.40001
1.40001
1.40001
1.40001
1.4
1.40001
1.40006
1.40126
1.41044
1.45897
1.59631
1.87317
2.18149
2.42832
2.58885
2.70754
2.75719
2.73256
2.72269
2.74354
2.76764
2.78007
2.78852
2.78851
2.78766
2.79421
2.79599
2.7981
2.80449
2.80508
2.80607
2.806
2.80587
2.80881
2.81495
2.82166
2.82788
2.83511
2.84399
2.86443
1.40001
1.40001
1.40001
1.40001
1.40001
1.40001
1.40001
1.40001
1.40001
1.40001
1.40001
1.40001
1.40001
1.40001
1.40001
1.40001
1.40001
1.40001
1.40001
1.40001
1.40001
1.40001
1.40001
1.40001
1.40001
1.40001
1.40001
1.40001
1.40001
1.40001
1.40001
1.40001
1.40001
1.40001
1.40001
1.40001
1.40001
1.40001
1.40001
1.40001
1.40001
1.40001
1.40001
1.40001
1.40001
1.40001
1.40001
1.40001
1.40005
1.40093
1.40834
1.45168
1.56789
1.81462
2.14211
2.38571
2.61627
2.70322
2.7255
2.75866
2.76255
2.7703
2.78391
2.78516
2.78044
2.78537
2.79187
2.79575
2.80259
2.80287
2.80266
2.80763
2.80807
2.80942
2.81621
2.82514
2.83169
2.8385
2.84772
2.86983
1.40001
1.40001
1.40001
1.40001
1.40001
1.40001
1.40001
1.40001
1.40001
1.40001
1.40001
1.40001
1.40001
1.40001
1.40001
1.40001
1.40001
1.40001
1.40001
1.40001
1.40001
1.40001
1.40001
1.40001
1.40001
1.40001
1.40001
1.40001
1.40001
1.40001
1.40001
1.40001
1.40001
1.40001
1.40001
1.40001
1.40001
1.40001
1.40001
1.40001
1.40001
1.40001
1.40001
1.40001
1.40001
1.40001
1.40001
1.40001
1.40001
1.40001
1.40004
1.40072
1.4063
1.43829
1.55382
1.78742
2.0785
2.38538
2.57487
2.70771
2.71391
2.72274
2.75671
2.77249
2.76977
2.77622
2.78638
2.79322
2.80423
2.80768
2.80479
2.80777
2.81152
2.81199
2.8171
2.82617
2.834
2.84191
2.85219
2.87564