/*--------------------------------*- C++ -*----------------------------------*\
| =========                 |                                                 |
| \\      /  F ield         | OpenFOAM: The Open Source CFD Toolbox           |
|  \\    /   O peration     | Version:  2206                                  |
|   \\  /    A nd           | Website:  www.openfoam.com                      |
|    \\/     M anipulation  |                                                 |
\*---------------------------------------------------------------------------*/
FoamFile
{
    version     2.0;
    format      ascii;
    arch        "LSB;label=32;scalar=64";
    class       volScalarField;
    location    "0.16";
    object      p;
}
// * * * * * * * * * * * * * * * * * * * * * * * * * * * * * * * * * * * * * //

dimensions      [1 -1 -2 0 0 0 0];

internalField   nonuniform List<scalar> 
4800
(
1
1
1
1
1
1
1
1
1
1
1
1
1
1
1
1
1
1
1
1
1
1
1
1
1
1
1
1
1
1
1
1
1
1
1
1
1
1
1
1
1
1
1
1
1
1
1
1
1
1
1
1
1
1
1
1
1
1
1
1
1
1
1
1
1
1
1
1
1
1
1
1
1
1
1
1
1
1
1
1
1
1
1
1
1
1
1
1
1
1
1
1
1
1
1
1
1
1
1
1
1
1
1
1
1
1
1
1
1
1
1
1
1
1
1
1
1
1
1
1
1
1
1
1
1
1
1
1
1
1
1
1
1
1
1
1
1
1
1
1
1
1
1
1
1
1
1
1
1
1
1
1
1
1
1
1
1
1
1
1
1
1
1
1
1
1
1
1
1
1
1
1
1
1
1
1
1
1
1
1
1
1
1
1
1
1
1
1
1
1
1
1
1
1
1
1
1
1
1
1
1
1
1
1
1
1
1
1
1
1
1
1
1
1
1
1
1
1
1
1
1
1
1
1
1
1
1
1
1
1
1
1
1
1
1
1
1
1
1
1
1
1
1
1
1
1
1
1
1
1
1
1
1
1
1
1
1
1
1
1
1
1
1
1
1
1
1
1
1
1
1
1
1
1
1
1
1
1
1
1
1
1
1
1
1
1
1
1
1
1
1
1
1
1
1
1
1
1
1
1
1
1
1
1
1
1
1
1
1
1
1
1
1
1
1
1
1
1
1
1
1
1
1
1
1
1
1
1
1
1
1
1
1
1
1
1
1
1
1
1
1
1
1
1
1
1
1
1
1
1
1
1
1
1
1
1
1
1
1
1
1
1
1
1
1
1
1
1
1
1
1
1
1
1
1
1
1
1
1
1
1
1
1
1
1
1
1
1
1
1
1
1
1
1
1
1
1
1
1
1
1
1
1
1
1
1
1
1
1
1
1
1
1
1
1
1
1
1
1
1
1
1
1
1
1
1
1
1
1
1
1
1
1
1
1
1
1
1
1
1
1
1
1
1
1
1
1
1
1
1
1
1
1
1
1
1
1
1
1
1
1
1
1
1
1
1
1
1
1
1
1
1
1
1
1
1
1
1
1
1
1
1
1
1
1
1
1
1
1
1
1
1
1
1
1
1
1
1
1
1
1
1
1
1
1
1
1
1
1
1
1
1
1
1
1
1
1
1
1
1
1
1
1
1
1
1
1
1
1
1
1
1
1
1
1
1
1
1
1
1
1
1
1
1
1
1
1
1
1
1
1
1
1
1
1
1
1
1
1
1
1
1
1
1
1
1
1
1
1
1
1
1
1
1
1
1
1
1
1
1
1
1
1
1
1
1
1
1
1
1
1
1
1
1
1
1
1
1
1
1
1
1
1
1
1
1
1
1
1
1
1
1
1
1
1
1
1
1
1
1
1
1
1
1
1
1
1
1
1
1
1
1
1
1
1
1
1
1
1
1
1
1
1
1
1
1
1
1
1
1
1
1
1
1
1
1
1
1
1
1
1
1
1
1
1
1
1
1
1
1
1
1
1
1
1
1
1
1
1
1
1
1
1
1
1
1
1
1
1
1
1
1
1
1
1
1
1
1
1
1
1
1
1
1
1
1
1
1
1
1
1
1
1
1
1
1
1
1
1
1
1
1
1
1
1
1
1
1
1
1
1
1
1
1
1
1
1
1
1
1
1
1
1
1
1
1
1
1
1
1
1
1
1
1
1
1
1
1
1
1
1
1
1
1
1
1
1
1
1
1
1
1
1
1
1
1
1
1
1
1
1
1
1
1
1
1
1
1
1
1
1
1
1
1
1
1
1
1
1
1
1
1
1
1
1
1
1
1
1
1
1
1
1
1
1
1
1
1
1
1
1
1
1
1
1
1
1
1
1
1
1
1
1
1
1
1
1
1
1
1
1
1
1
1
1
1
1
1
1
1
1
1
1
1
1
1
1
1
1
1
1
1
1
1
1
1
1
1
1
1
1
1
1
1
1
1
1
1
1
1
1
1
1
1
1
1
1
1
1
1
1
1
1
1
1
1
1
1
1
1
1
1
1
1
1
1
1
1
1
1
1
1
1
1
1
1
1
1
1
1
1
1
1
1
1
1
1
1
1
1
1
1
1
1
1
1
1
1
1
1
1
1
1
1
1
1
1
1
1
1
1
1
1
1
1
1
1
1
1
1
1
1
1
1
1
1
1
1
1
1
1
1
1
1
1
1
1
1
1
1
1
1
1
1
1
1
1
1
1
1
1
1
1
1
1
1
1
1
1
1
1
1
1
1
1
1
1
1
1
1
1
1
1
1
1
1
1
1
1
1
1
1
1
1
1
1
1
1
1
1
1
1
1
1
1
1
1
1
1
1
1
1
1
1
1
1
1
1
1
1
1
1
1
1
1
1
1
1
1
1
1
1
1
1
1
1
1
1
1
1
1
1
1
1
1
1
1
1
1
1
1
1
1
1
1
1
1
1
1
1
1
1
1
1
1
1
1
1
1
1
1
1
1
1
1
1
1
1
1
1
1
1
1
1
1
1
1
1
1
1
1
1
1
1
1
1
1
1
1
1
1
1
1
1
1
1
1
1
1
1
1
1
1
1
1
1
1
1
1
1
1
1
1
1
1
1
1
1
1
1
1
1
1
1
1
1
1
1
1
1
1
1
1
1
1
1
1
1
1
1
1
1
1
1
1
1
1
1
1
1
1
1
1
1
1
1
1
1
1
1
1
1
1
1
1
1
1
1
1
1
1
1
1
1
1
1
1
1
1
1
1
1
1
1
1
1
1
1
1
1
1
1
1
1
1
1
1
1
1
1
1
1
1
1
1
1
1
1
1
1
1
1
1
1
1
1
1
1
1
1
1
1
1
1
1
1
1
1
1
1
1
1
1
1
1
1
1
1
1
1
1
1
1
1
1
1
1
1
1
1
1
1
1
1
1
1
1
1
1
1
1
1
1
1
1
1
1
1
1
1
1
1
1
1
1
1
1
1
1
1
1
1
1
1
1
1
1
1
1
1
1
1
1
1
1
1
1
1
1
1
1
1
1
1
1
1
1
1
1
1
1
1
1
1
1
1
1
1
1
1
1
1
1
1
1
1
1
1
1
1
1
1
1
1
1
1
1
1
1
1
1
1
1
1
1
1
1
1
1
1
1
1
1
1
1
1
1
1
1
1
1
1
1
1
1
1
1
1
1
1
1
1
1
1
1
1
1
1
1
1
1
1
1
1
1
1
1
1
1
1
1
1
1
1
1
1
1
1
1
1
1
1
1
1
1
1
1
1
1
1
1
1
1
1
1
1
1
1
1
1
1
1
1
1
1
1
1
1
1
1
1
1
1
1
1
1
1
1
1
1
1
1
1
1
1
1
1
1
1
1
1
1
1
1
1
1
1
1
1
1
1
1
1
1
1
1
1
1
1
1
1
1
1
1
1
1
1
1
1
1
1
1
1
1
1
1
1
1
1
1
1
1
1
1
1
1
1
1
1
1
1
1
1
1
1
1
1
1
1
1
1
1
1
1
1
1
1
1
1
1
1
1
1
1
1
1
1
1
1
1
1
1
1
1
1
1
1
1
1
1
1
1
1
1
1
1
1
1
1
1
1
1
1
1
1
1
1
1
1
1
1.26263
1.67461
2.18507
2.78549
3.33407
3.84715
4.54493
5.35334
5.63825
5.90007
6.48376
6.77193
6.74219
6.62995
6.49593
6.28843
5.86172
5.26333
4.80465
4.67369
4.50256
4.31887
4.30978
4.3479
4.38751
4.42133
4.45697
4.5217
4.59813
4.64303
4.65104
4.6416
4.63358
4.64412
4.66361
4.66817
4.65756
4.63792
4.63705
4.66744
4.71586
4.73607
4.73888
4.73232
4.71624
4.70144
4.68664
4.66776
4.64608
4.62833
4.62432
4.63523
4.67353
4.71641
4.74213
4.75115
4.75069
4.74432
4.72903
4.70647
4.6779
4.65867
4.65055
4.64964
4.65763
4.67166
4.6827
4.6993
4.71733
4.73332
4.75237
4.76911
4.77297
4.76859
4.75445
4.73252
4.70456
4.68773
4.68119
4.68123
1
0.999881
0.998225
1.01511
1.11038
1.24824
1.36684
1.62618
2.07746
2.42956
2.88154
3.38292
3.83932
4.17606
4.5088
4.79575
4.79051
4.91712
5.0208
5.09542
5.07625
4.93672
4.80076
4.76326
4.70062
4.65085
4.56828
4.52307
4.52949
4.55307
4.58186
4.59117
4.60276
4.63257
4.66743
4.67121
4.66551
4.65712
4.65328
4.65724
4.66027
4.66448
4.67531
4.69179
4.70373
4.70552
4.70498
4.70148
4.69245
4.6784
4.66349
4.6635
4.67183
4.67653
4.68185
4.69087
4.70193
4.71103
4.71306
4.70708
4.70518
4.70587
4.70683
4.71044
4.71296
4.70993
4.70037
4.68879
4.68646
4.68822
4.69704
4.71432
4.73199
4.73731
4.73501
4.72531
4.71571
4.71448
4.7162
4.71955
1
1
1
1
0.999996
1
1
0.999157
1.00296
1.02321
1.08265
1.2565
1.53855
2.00777
2.68667
3.57054
4.47299
4.89284
5.4462
5.47522
5.44974
5.38128
5.26242
5.13824
5.00107
4.77897
4.58969
4.50509
4.51309
4.54882
4.56656
4.57532
4.59485
4.62918
4.66664
4.67979
4.67797
4.67666
4.67855
4.66942
4.64941
4.64004
4.63874
4.64614
4.66711
4.70076
4.72414
4.72693
4.71863
4.70772
4.70202
4.69683
4.6866
4.67771
4.66991
4.65932
4.65261
4.65708
4.67403
4.6967
4.71609
4.72862
4.74043
4.75018
4.75302
4.74881
4.73022
4.7037
4.68296
4.67701
4.67683
4.6775
4.68166
4.69131
4.70251
4.71297
4.72457
4.73224
4.73934
4.74556
1
1
1
1
1
1
1
1
1
1
1
1
0.999265
1.00238
1.0467
1.19937
1.69739
2.37378
3.25511
4.03322
4.4491
4.87468
4.93017
4.92697
4.94623
4.95857
4.91923
4.82438
4.77423
4.74211
4.69502
4.62805
4.57182
4.55698
4.56001
4.59184
4.63875
4.67274
4.68233
4.67924
4.66346
4.65254
4.63838
4.6285
4.63171
4.65282
4.68442
4.70663
4.72185
4.73214
4.73338
4.72549
4.7129
4.70287
4.6887
4.66709
4.64531
4.63949
4.64506
4.65772
4.67981
4.71187
4.74761
4.7711
4.77511
4.76949
4.74844
4.70844
4.67951
4.67305
4.67192
4.67207
4.67488
4.67747
4.68274
4.69268
4.70373
4.71584
4.73213
4.75203
1
1
1
1
1
1
1
1
1
1
1
1
1
1
0.999999
1
0.999074
1.02089
1.11454
1.51925
2.1388
2.87076
3.62968
4.2027
4.86885
5.03854
5.09579
5.11413
5.07661
4.99975
4.88162
4.69484
4.54552
4.52346
4.53788
4.5849
4.62888
4.65477
4.66392
4.6615
4.66106
4.65851
4.64472
4.63338
4.63799
4.65291
4.66407
4.67199
4.68468
4.69901
4.70812
4.7137
4.71547
4.71178
4.70349
4.69514
4.68208
4.66457
4.66277
4.66314
4.66354
4.6715
4.69301
4.7206
4.73869
4.74251
4.73351
4.71209
4.70346
4.7045
4.70566
4.7056
4.70371
4.70058
4.6998
4.70142
4.70257
4.70508
4.71201
4.72496
1
1
1
1
1
1
1
1
1
1
1
1
1
1
1
1
1
1
1
0.99915
1.00986
1.06653
1.36519
1.88767
2.60154
3.38378
3.95593
4.59861
4.76998
4.77433
4.78152
4.76861
4.6882
4.65041
4.652
4.67897
4.67916
4.68447
4.6619
4.63965
4.63524
4.63593
4.6297
4.62724
4.64153
4.66995
4.67058
4.66332
4.65517
4.65304
4.65602
4.67348
4.71198
4.73641
4.73925
4.7394
4.73632
4.72234
4.69656
4.6844
4.67449
4.66589
4.66456
4.66942
4.67807
4.68613
4.69327
4.70318
4.71523
4.72854
4.73873
4.74192
4.73975
4.73437
4.72786
4.71998
4.71359
4.71056
4.7083
4.70765
1
1
1
1
1
1
1
1
1
1
1
1
1
1
1
1
1
1
1
1
1
1
0.999394
1.00371
1.04577
1.30114
1.71762
2.37861
3.14638
3.79189
4.51966
4.71363
4.82141
4.84633
4.82737
4.79251
4.73668
4.63862
4.55912
4.55923
4.57927
4.61751
4.66248
4.68656
4.68902
4.67423
4.65397
4.62917
4.61884
4.61567
4.61424
4.62646
4.66659
4.71971
4.75085
4.75651
4.75505
4.75179
4.74506
4.71523
4.68497
4.66574
4.65549
4.6565
4.66082
4.66212
4.665
4.67352
4.69061
4.71855
4.7481
4.76027
4.75918
4.75327
4.74204
4.7233
4.71451
4.7078
4.69912
4.69237
1
1
1
1
1
1
1
1
1
1
1
1
1
1
1
1
1
1
1
1
1
1
1
1
1
0.99958
1.0013
1.02918
1.23866
1.59566
2.21257
2.99733
3.74124
4.46094
4.53744
4.59332
4.61333
4.57535
4.56355
4.57555
4.60196
4.63667
4.69117
4.7171
4.7151
4.71121
4.70596
4.67483
4.62358
4.60738
4.60722
4.61702
4.641
4.66605
4.69483
4.71833
4.73266
4.74356
4.74627
4.74387
4.73637
4.72417
4.70493
4.68974
4.68134
4.67479
4.6696
4.66995
4.67811
4.69467
4.71524
4.72932
4.73067
4.72789
4.72363
4.72009
4.7147
4.7041
4.69727
4.69726
1
1
1
1
1
1
1
1
1
1
1
1
1
1
1
1
1
1
1
1
1
1
1
1
1
1
1
1
0.999702
1.00063
1.02549
1.21607
1.56798
2.25243
2.98003
3.72466
4.38837
4.52821
4.64102
4.65919
4.64014
4.64753
4.6629
4.70027
4.71041
4.71218
4.70671
4.68915
4.68643
4.68681
4.68226
4.67057
4.66056
4.65332
4.65027
4.64575
4.64716
4.66353
4.69471
4.72281
4.73345
4.73621
4.74253
4.74915
4.74593
4.72941
4.70159
4.6791
4.67491
4.6795
4.68567
4.68524
4.6841
4.68468
4.69071
4.70377
4.71295
4.7145
4.71418
4.71734
1
1
1
1
1
1
1
1
1
1
1
1
1
1
1
1
1
1
1
1
1
1
1
1
1
1
1
1
1
1
1
0.999768
1.00103
1.035
1.2205
1.52389
2.18451
2.97442
3.89166
4.32491
4.3572
4.44969
4.50469
4.52553
4.5474
4.58911
4.63937
4.68271
4.70552
4.72283
4.73587
4.75283
4.75869
4.72403
4.65735
4.62038
4.61674
4.62614
4.64127
4.65516
4.67626
4.70344
4.73714
4.75741
4.76183
4.75684
4.74376
4.72679
4.70824
4.69228
4.67838
4.67179
4.66893
4.67037
4.67695
4.68674
4.69851
4.71139
4.7248
4.73329
1
1
1
1
1
1
1
1
1
1
1
1
1
1
1
1
1
1
1
1
1
1
1
1
1
1
1
1
1
1
1
0.999999
0.999997
1.00001
0.999925
1.00117
1.03939
1.2209
1.61551
2.33264
3.08646
3.95292
4.39311
4.46819
4.48941
4.48901
4.5025
4.55234
4.66649
4.73101
4.75366
4.77107
4.78224
4.77242
4.74451
4.70361
4.65751
4.63884
4.63657
4.64184
4.64565
4.65247
4.66887
4.69762
4.72644
4.73806
4.73737
4.73533
4.73695
4.73641
4.72435
4.70578
4.68416
4.67126
4.67338
4.68422
4.69744
4.70602
4.71396
4.72599
1
1
1
1
1
1
1
1
1
1
1
1
1
1
1
1
1
1
1
1
1
1
1
1
1
1
1
1
1
1
1
1
1
1
0.999999
0.999996
1.00003
1.00001
1.00343
1.07306
1.27408
1.70961
2.45828
3.38727
4.23407
4.34395
4.34852
4.44919
4.49609
4.526
4.56288
4.62821
4.71506
4.74808
4.73324
4.72609
4.73804
4.74578
4.73947
4.70898
4.66542
4.64193
4.64625
4.65953
4.66367
4.6695
4.67877
4.6946
4.7209
4.7357
4.73329
4.72795
4.72194
4.71261
4.70566
4.7038
4.70358
4.70457
4.70858
4.71164
1
1
1
1
1
1
1
1
1
1
1
1
1
1
1
1
1
1
1
1
1
1
1
1
1
1
1
1
1
1
1
1
1
1
1
1
1
1
0.999992
1.00006
1.00036
1.00798
1.10351
1.37245
2.0318
2.77886
3.61373
4.29087
4.4576
4.46418
4.4657
4.44092
4.4987
4.62379
4.69431
4.71908
4.74477
4.77364
4.79491
4.79042
4.76374
4.72862
4.6935
4.67087
4.65378
4.64376
4.64316
4.65067
4.67619
4.71047
4.72862
4.7288
4.72677
4.72332
4.7263
4.73118
4.72982
4.72459
4.71746
4.70879
1
1
1
1
1
1
1
1
1
1
1
1
1
1
1
1
1
1
1
1
1
1
1
1
1
1
1
1
1
1
1
1
1
1
1
1
1
1
1
1
0.999999
1
1.00001
1.00133
1.03316
1.19611
1.53829
2.28549
3.21604
4.18796
4.43367
4.42318
4.49964
4.52996
4.52325
4.51849
4.55279
4.63909
4.74323
4.76584
4.7523
4.75286
4.75916
4.7583
4.73435
4.68614
4.65336
4.64545
4.65831
4.68628
4.6912
4.6895
4.69136
4.70275
4.72213
4.73268
4.73362
4.72931
4.72616
4.72163
1
1
1
1
1
1
1
1
1
1
1
1
1
1
1
1
1
1
1
1
1
1
1
1
1
1
1
1
1
1
1
1
1
1
1
1
1
1
1
1
1
1
1
0.999998
0.999976
1.00033
1.00514
1.08297
1.34809
2.06021
2.87839
3.67088
4.30965
4.56732
4.55882
4.49484
4.45079
4.488
4.58773
4.66268
4.68239
4.71358
4.75234
4.77404
4.77462
4.74731
4.73018
4.72219
4.7128
4.70046
4.6904
4.67711
4.67415
4.68039
4.69498
4.71027
4.71327
4.71184
4.71286
4.71366
1
1
1
1
1
1
1
1
1
1
1
1
1
1
1
1
1
1
1
1
1
1
1
1
1
1
1
1
1
1
1
1
1
1
1
1
1
1
1
1
1
1
1
1
0.999999
0.999999
0.99999
1.00004
1.00206
1.04248
1.2515
1.63349
2.41379
3.40151
4.3627
4.51305
4.49867
4.59695
4.62435
4.61392
4.57455
4.55068
4.58564
4.65264
4.71014
4.7166
4.72053
4.73911
4.75295
4.76304
4.75375
4.71725
4.69199
4.68647
4.68815
4.69217
4.69243
4.68749
4.6873
4.69394
1
1
1
1
1
1
1
1
1
1
1
1
1
1
1
1
1
1
1
1
1
1
1
1
1
1
1
1
1
1
1
1
1
1
1
1
1
1
1
1
1
1
1
1
1
1
0.999999
0.999999
1
0.999987
1.00098
1.01093
1.12081
1.47123
2.39949
3.36687
4.06779
4.49837
4.72821
4.73777
4.65743
4.52767
4.52914
4.55224
4.60566
4.64561
4.64095
4.67903
4.75142
4.7726
4.76039
4.7222
4.71564
4.71753
4.71916
4.71378
4.69828
4.67964
4.67581
4.68283
1
1
1
1
1
1
1
1
1
1
1
1
1
1
1
1
1
1
1
1
1
1
1
1
1
1
1
1
1
1
1
1
1
1
1
1
1
1
1
1
1
1
1
1
1
1
1
1
1
0.999999
0.999999
0.999983
1.00026
1.00675
1.12454
1.59162
2.24429
3.03068
4.03007
4.6228
4.6649
4.63015
4.7099
4.71739
4.68206
4.64765
4.61381
4.62421
4.66408
4.69361
4.69405
4.6861
4.68859
4.71113
4.7306
4.73693
4.72672
4.70714
4.7032
4.70295
1
1
1
1
1
1
1
1
1
1
1
1
1
1
1
1
1
1
1
1
1
1
1
1
1
1
1
1
1
1
1
1
1
1
1
1
1
1
1
1
1
1
1
1
1
1
1
1
1
1
1
0.999998
0.999998
0.999986
1.00051
1.01004
1.08004
1.39309
2.05966
3.13444
3.95663
4.37122
4.62815
4.76747
4.7804
4.76497
4.71426
4.66468
4.65779
4.64912
4.63954
4.63108
4.6286
4.64923
4.69532
4.72943
4.72615
4.71455
4.71413
4.71753
1
1
1
1
1
1
1
1
1
1
1
1
1
1
1
1
1
1
1
1
1
1
1
1
1
1
1
1
1
1
1
1
1
1
1
1
1
1
1
1
1
1
1
1
1
1
1
1
1
1
1
1
1
0.999998
0.999998
0.999988
1.00015
1.00488
1.05312
1.45786
2.4366
3.25411
3.86126
4.4816
4.72896
4.74978
4.7483
4.7775
4.80986
4.78767
4.72691
4.66634
4.63264
4.6508
4.68545
4.6983
4.69148
4.68833
4.69571
4.71444
1
1
1
1
1
1
1
1
1
1
1
1
1
1
1
1
1
1
1
1
1
1
1
1
1
1
1
1
1
1
1
1
1
1
1
1
1
1
1
1
1
1
1
1
1
1
1
1
1
1
1
1
1
1
1
0.999999
0.999999
0.999992
1.00014
1.01132
1.1161
1.58587
2.35604
3.42093
4.13874
4.35182
4.47982
4.64796
4.76225
4.7809
4.75123
4.72338
4.71838
4.73212
4.73278
4.70779
4.6876
4.6759
4.68028
4.69436
1
1
1
1
1
1
1
1
1
1
1
1
1
1
1
1
1
1
1
1
1
1
1
1
1
1
1
1
1
1
1
1
1
1
1
1
1
1
1
1
1
1
1
1
1
1
1
1
1
1
1
1
1
1
1
1
1
0.999999
0.999999
0.999992
1.00058
1.01735
1.11424
1.57277
2.69258
3.8942
4.13375
4.32156
4.59135
4.6792
4.61963
4.59927
4.66499
4.75818
4.78651
4.76551
4.73087
4.71126
4.70828
4.70289
1
1
1
1
1
1
1
1
1
1
1
1
1
1
1
1
1
1
1
1
1
1
1
1
1
1
1
1
1
1
1
1
1
1
1
1
1
1
1
1
1
1
1
1
1
1
1
1
1
1
1
1
1
1
1
1
1
1
1
0.999999
0.999999
0.999997
1.0006
1.02093
1.19435
1.98664
3.09302
4.01376
4.58436
4.61548
4.53011
4.47449
4.52407
4.64611
4.74134
4.73503
4.7015
4.70623
4.73451
4.73846
1
1
1
1
1
1
1
1
1
1
1
1
1
1
1
1
1
1
1
1
1
1
1
1
1
1
1
1
1
1
1
1
1
1
1
1
1
1
1
1
1
1
1
1
1
1
1
1
1
1
1
1
1
1
1
1
1
1
1
1
1
0.999999
0.999998
1.00002
1.00264
1.07292
1.44864
2.22432
3.43248
4.43101
4.61745
4.5923
4.6339
4.63158
4.66552
4.66127
4.61625
4.61102
4.66817
4.71075
1
1
1
1
1
1
1
1
1
1
1
1
1
1
1
1
1
1
1
1
1
1
1
1
1
1
1
1
1
1
1
1
1
1
1
1
1
1
1
1
1
1
1
1
1
1
1
1
1
1
1
1
1
1
1
1
1
1
1
1
1
1
1
1
0.999996
1.00045
1.01033
1.13123
1.56701
2.78177
3.89425
4.432
4.68583
4.77905
4.78364
4.75385
4.67248
4.62921
4.65576
4.6681
1
1
1
1
1
1
1
1
1
1
1
1
1
1
1
1
1
1
1
1
1
1
1
1
1
1
1
1
1
1
1
1
1
1
1
1
1
1
1
1
1
1
1
1
1
1
1
1
1
1
1
1
1
1
1
1
1
1
1
1
1
1
1
1
0.999999
0.999999
0.999998
1.00121
1.02093
1.3282
2.3708
3.34837
4.08732
4.65011
4.75568
4.74927
4.75533
4.72632
4.73783
4.72737
1
1
1
1
1
1
1
1
1
1
1
1
1
1
1
1
1
1
1
1
1
1
1
1
1
1
1
1
1
1
1
1
1
1
1
1
1
1
1
1
1
1
1
1
1
1
1
1
1
1
1
1
1
1
1
1
1
1
1
1
1
1
1
1
1
1
1
0.999998
1.00009
1.00982
1.14346
1.8235
2.86928
3.99106
4.35735
4.47522
4.54994
4.63704
4.71682
4.73897
1
1
1
1
1
1
1
1
1
1
1
1
1
1
1
1
1
1
1
1
1
1
1
1
1
1
1
1
1
1
1
1
1
1
1
1
1
1
1
1
1
1
1
1
1
1
1
1
1
1
1
1
1
1
1
1
1
1
1
1
1
1
1
1
1
1
1
1
0.999999
1.00001
1.00223
1.05716
1.35823
2.22916
3.82765
4.45619
4.39715
4.43744
4.54626
4.66383
1
1
1
1
1
1
1
1
1
1
1
1
1
1
1
1
1
1
1
1
1
1
1
1
1
1
1
1
1
1
1
1
1
1
1
1
1
1
1
1
1
1
1
1
1
1
1
1
1
1
1
1
1
1
1
1
1
1
1
1
1
1
1
1
1
1
1
1
1
1
0.999998
1.00034
1.01121
1.14626
1.90909
3.38339
4.17001
4.5366
4.69092
4.72809
1
1
1
1
1
1
1
1
1
1
1
1
1
1
1
1
1
1
1
1
1
1
1
1
1
1
1
1
1
1
1
1
1
1
1
1
1
1
1
1
1
1
1
1
1
1
1
1
1
1
1
1
1
1
1
1
1
1
1
1
1
1
1
1
1
1
1
1
1
1
1
0.999999
1.00002
1.003
1.0729
1.72766
3.03417
3.91127
4.50265
4.74054
1
1
1
1
1
1
1
1
1
1
1
1
1
1
1
1
1
1
1
1
1
1
1
1
1
1
1
1
1
1
1
1
1
1
1
1
1
1
1
1
1
1
1
1
1
1
1
1
1
1
1
1
1
1
1
1
1
1
1
1
1
1
1
1
1
1
1
1
1
1
1
1
1
1
1.00116
1.05254
1.54671
2.57427
3.64815
4.47374
1
1
1
1
1
1
1
1
1
1
1
1
1
1
1
1
1
1
1
1
1
1
1
1
1
1
1
1
1
1
1
1
1
1
1
1
1
1
1
1
1
1
1
1
1
1
1
1
1
1
1
1
1
1
1
1
1
1
1
1
1
1
1
1
1
1
1
1
1
1
1
1
1
1
1
1.00074
1.02938
1.26812
2.06388
3.77746
1
1
1
1
1
1
1
1
1
1
1
1
1
1
1
1
1
1
1
1
1
1
1
1
1
1
1
1
1
1
1
1
1
1
1
1
1
1
1
1
1
1
1
1
1
1
1
1
1
1
1
1
1
1
1
1
1
1
1
1
1
1
1
1
1
1
1
1
1
1
1
1
1
1
1
0.999999
1.00017
1.00893
1.1063
2.50983
1
1
1
1
1
1
1
1
1
1
1
1
1
1
1
1
1
1
1
1
1
1
1
1
1
1
1
1
1
1
1
1
1
1
1
1
1
1
1
1
1
1
1
1
1
1
1
1
1
1
1
1
1
1
1
1
1
1
1
1
1
1
1
1
1
1
1
1
1
1
1
1
1
1
1
1
1
1.00005
1.0028
1.50596
1
1
1
1
1
1
1
1
1
1
1
1
1
1
1
1
1
1
1
1
1
1
1
1
1
1
1
1
1
1
1
1
1
1
1
1
1
1
1
1
1
1
1
1
1
1
1
1
1
1
1
1
1
1
1
1
1
1
1
1
1
1
1
1
1
1
1
1
1
1
1
1
1
1
1
1
1
1
1.00006
1.09375
1
1
1
1
1
1
1
1
1
1
1
1
1
1
1
1
1
1
1
1
1
1
1
1
1
1
1
1
1
1
1
1
1
1
1
1
1
1
1
1
1
1
1
1
1
1
1
1
1
1
1
1
1
1
1
1
1
1
1
1
1
1
1
1
1
1
1
1
1
1
1
1
1
1
1
1
1
1
1
1.009
1
1
1
1
1
1
1
1
1
1
1
1
1
1
1
1
1
1
1
1
1
1
1
1
1
1
1
1
1
1
1
1
1
1
1
1
1
1
1
1
1
1
1
1
1
1
1
1
1
1
1
1
1
1
1
1
1
1
1
1
1
1
1
1
1
1
1
1
1
1
1
1
1
1
1
1
1
1
1
1.00042
1
1
1
1
1
1
1
1
1
1
1
1
1
1
1
1
1
1
1
1
1
1
1
1
1
1
1
1
1
1
1
1
1
1
1
1
1
1
1
1
1
1
1
1
1
1
1
1
1
1
1
1
1
1
1
1
1
1
1
1
1
1
1
1
1
1
1
1
1
1
1
1
1
1
1
1
1
1
1
1.00001
1
1
1
1
1
1
1
1
1
1
1
1
1
1
1
1
1
1
1
1
1
1
1
1
1
1
1
1
1
1
1
1
1
1
1
1
1
1
1
1
1
1
1
1
1
1
1
1
1
1
1
1
1
1
1
1
1
1
1
1
1
1
1
1
1
1
1
1
1
1
1
1
1
1
1
1
1
1
1
1
1
1
1
1
1
1
1
1
1
1
1
1
1
1
1
1
1
1
1
1
1
1
1
1
1
1
1
1
1
1
1
1
1
1
1
1
1
1
1
1
1
1
1
1
1
1
1
1
1
1
1
1
1
1
1
1
1
1
1
1
1
1
1
1
1
1
1
1
1
1
1
1
1
1
1
1
1
1
1
1
)
;

boundaryField
{
    inlet
    {
        type            fixedValue;
        value           uniform 1;
    }
    outlet
    {
        type            zeroGradient;
    }
    bottom
    {
        type            symmetryPlane;
    }
    top
    {
        type            symmetryPlane;
    }
    obstacle
    {
        type            zeroGradient;
    }
    defaultFaces
    {
        type            empty;
    }
}


// ************************************************************************* //
