/*--------------------------------*- C++ -*----------------------------------*\
| =========                 |                                                 |
| \\      /  F ield         | OpenFOAM: The Open Source CFD Toolbox           |
|  \\    /   O peration     | Version:  2206                                  |
|   \\  /    A nd           | Website:  www.openfoam.com                      |
|    \\/     M anipulation  |                                                 |
\*---------------------------------------------------------------------------*/
FoamFile
{
    version     2.0;
    format      ascii;
    arch        "LSB;label=32;scalar=64";
    class       volVectorField;
    location    "0.14";
    object      U;
}
// * * * * * * * * * * * * * * * * * * * * * * * * * * * * * * * * * * * * * //

dimensions      [0 1 -1 0 0 0 0];

internalField   nonuniform List<vector> 
4800
(
(4.73737 4.56079e-15 0)
(4.73737 -3.70397e-15 0)
(4.73737 -6.23441e-16 0)
(4.73737 -1.19721e-14 0)
(4.73737 -3.09587e-14 0)
(4.73737 -5.0272e-14 0)
(4.73737 -8.98322e-14 0)
(4.73737 -1.02378e-13 0)
(4.73737 -1.19361e-13 0)
(4.73737 -1.35937e-13 0)
(4.73737 -1.11509e-13 0)
(4.73737 -4.70081e-15 0)
(4.73737 3.16855e-14 0)
(4.73737 8.23676e-14 0)
(4.73737 9.35195e-14 0)
(4.73737 8.3251e-14 0)
(4.73737 9.666e-14 0)
(4.73737 1.07269e-13 0)
(4.73737 1.18267e-13 0)
(4.73737 1.06558e-13 0)
(4.73737 1.26985e-13 0)
(4.73737 1.86155e-13 0)
(4.73737 1.90123e-13 0)
(4.73737 1.81328e-13 0)
(4.73737 1.67829e-13 0)
(4.73737 5.64698e-14 0)
(4.73737 -2.36141e-14 0)
(4.73737 -3.0972e-14 0)
(4.73737 -3.76532e-14 0)
(4.73737 -4.29641e-14 0)
(4.73737 -9.46163e-15 0)
(4.73737 6.46112e-15 0)
(4.73737 2.61478e-14 0)
(4.73737 1.20587e-14 0)
(4.73737 5.6243e-15 0)
(4.73737 5.60797e-14 0)
(4.73737 7.82668e-14 0)
(4.73737 9.14991e-14 0)
(4.73737 9.37562e-14 0)
(4.73737 4.02903e-14 0)
(4.73737 4.46744e-15 0)
(4.73737 -8.25142e-15 0)
(4.73737 4.2274e-15 0)
(4.73737 1.56927e-14 0)
(4.73737 -7.3346e-16 0)
(4.73737 -3.80366e-14 0)
(4.73737 -8.82952e-14 0)
(4.73737 -8.77185e-14 0)
(4.73737 -7.85936e-14 0)
(4.73737 -7.68533e-14 0)
(4.73737 -4.92352e-14 0)
(4.73737 -3.68397e-14 0)
(4.73737 -7.9347e-15 0)
(4.73737 5.85835e-14 0)
(4.73737 1.08315e-13 0)
(4.73737 1.17804e-13 0)
(4.73737 1.36284e-13 0)
(4.73737 1.62585e-13 0)
(4.73737 1.95154e-13 0)
(4.73737 2.12823e-13 0)
(4.73737 2.08176e-13 0)
(4.73737 2.04202e-13 0)
(4.73737 1.91266e-13 0)
(4.73737 1.80324e-13 0)
(4.73737 9.03556e-14 0)
(4.73737 1.1442e-14 0)
(4.73737 -3.80799e-14 0)
(4.73737 -3.58595e-14 0)
(4.73737 -3.6493e-14 0)
(4.73737 -4.36009e-14 0)
(4.73737 2.62445e-14 0)
(4.73737 4.50144e-14 0)
(4.73737 3.62063e-14 0)
(4.73737 -4.31074e-15 0)
(4.73737 -1.5336e-16 0)
(4.73737 2.04302e-14 0)
(4.73737 1.42928e-13 0)
(4.73737 2.51757e-13 0)
(4.73737 2.30336e-13 0)
(4.73737 1.42824e-13 0)
(4.73737 6.2044e-15 0)
(4.73737 2.62779e-14 0)
(4.73737 2.89717e-14 0)
(4.73737 2.90483e-14 0)
(4.73737 1.26689e-16 0)
(4.73737 3.57395e-15 0)
(4.73737 2.11537e-14 0)
(4.73737 2.46309e-14 0)
(4.73737 6.80851e-14 0)
(4.73737 1.06098e-13 0)
(4.73737 1.56697e-13 0)
(4.73737 1.50423e-13 0)
(4.73737 1.61014e-13 0)
(4.73737 5.23424e-14 0)
(4.73737 -5.37426e-15 0)
(4.73737 -3.07053e-15 0)
(4.73737 -1.48459e-14 0)
(4.73737 -9.41829e-15 0)
(4.73737 5.49695e-14 0)
(4.73737 9.99639e-14 0)
(4.73737 8.97388e-14 0)
(4.73737 9.59299e-14 0)
(4.73737 1.05625e-13 0)
(4.73737 4.02103e-14 0)
(4.73737 -7.01621e-14 0)
(4.73737 -5.23357e-14 0)
(4.73737 -3.00619e-14 0)
(4.73737 -1.57094e-14 0)
(4.73737 -1.50559e-14 0)
(4.73737 -1.58094e-14 0)
(4.73737 3.22522e-14 0)
(4.73737 6.31009e-14 0)
(4.73737 4.88151e-14 0)
(4.73737 2.62545e-14 0)
(4.73737 8.90821e-15 0)
(4.73737 -2.98685e-14 0)
(4.73737 2.77548e-14 0)
(4.73737 2.02722e-13 0)
(4.73737 2.78778e-13 0)
(4.73737 2.85406e-13 0)
(4.73737 -2.41375e-15 0)
(4.73737 1.7353e-14 0)
(4.73737 2.1317e-14 0)
(4.73737 -2.79882e-14 0)
(4.73737 -7.00221e-14 0)
(4.73737 -5.95436e-14 0)
(4.73737 7.64799e-15 0)
(4.73737 -1.47025e-15 0)
(4.73737 2.93717e-15 0)
(4.73737 2.59778e-14 0)
(4.73737 4.63513e-14 0)
(4.73737 4.06303e-14 0)
(4.73737 1.50493e-14 0)
(4.73737 -3.07653e-14 0)
(4.73737 -4.76882e-14 0)
(4.73737 -5.66665e-14 0)
(4.73737 -6.67949e-14 0)
(4.73737 -5.02453e-14 0)
(4.73737 -3.89867e-14 0)
(4.73737 -4.50078e-14 0)
(4.73737 -2.9155e-14 0)
(4.73737 8.91821e-15 0)
(4.73737 8.5208e-14 0)
(4.73737 5.47995e-14 0)
(4.73737 6.43978e-14 0)
(4.73737 1.06688e-13 0)
(4.73737 1.29862e-13 0)
(4.73737 1.41831e-13 0)
(4.73737 1.31553e-13 0)
(4.73737 7.46962e-14 0)
(4.73737 7.24492e-14 0)
(4.73737 5.21523e-14 0)
(4.73737 3.03586e-14 0)
(4.73737 1.02584e-14 0)
(4.73737 -3.33424e-14 0)
(4.73737 -2.76014e-14 0)
(4.73737 4.11404e-14 0)
(4.73737 1.06678e-13 0)
(4.73737 1.96097e-13 0)
(4.73737 1.63837e-13 0)
(4.73737 1.01418e-14 0)
(4.73737 -4.44077e-15 0)
(4.73737 1.94367e-15 0)
(4.73737 5.76099e-15 0)
(4.73737 -1.85765e-14 0)
(4.73737 -4.32141e-14 0)
(4.73737 -5.37826e-14 0)
(4.73737 -1.5346e-14 0)
(4.73737 4.08837e-14 0)
(4.73737 3.95902e-14 0)
(4.73737 -1.59961e-14 0)
(4.73737 -2.53544e-14 0)
(4.73737 -4.66581e-14 0)
(4.73737 -4.6488e-14 0)
(4.73737 -3.31991e-14 0)
(4.73737 4.38742e-15 0)
(4.73737 1.43525e-14 0)
(4.73737 -1.64062e-14 0)
(4.73737 -1.3223e-13 0)
(4.73737 -1.47219e-13 0)
(4.73737 -1.48869e-13 0)
(4.73737 -8.58182e-14 0)
(4.73737 -6.28775e-15 0)
(4.73737 5.08655e-14 0)
(4.73737 1.61295e-13 0)
(4.73737 2.06716e-13 0)
(4.73737 2.13527e-13 0)
(4.73737 3.07453e-13 0)
(4.73737 3.95302e-13 0)
(4.73737 3.64516e-13 0)
(4.73737 2.3415e-13 0)
(4.73737 2.08733e-13 0)
(4.73737 1.69853e-13 0)
(4.73737 1.49209e-13 0)
(4.73737 1.42678e-13 0)
(4.73737 6.23708e-14 0)
(4.73737 4.0307e-14 0)
(4.73737 1.68396e-14 0)
(4.73737 1.71696e-14 0)
(4.73737 9.04288e-15 0)
(4.73737 1.62328e-14 0)
(4.73737 1.44458e-14 0)
(4.73737 9.33495e-16 0)
(4.73737 1.86866e-14 0)
(4.73737 1.86666e-14 0)
(4.73737 6.15173e-14 0)
(4.73737 7.46496e-14 0)
(4.73737 9.53565e-14 0)
(4.73737 1.19124e-13 0)
(4.73737 1.08332e-13 0)
(4.73737 8.68683e-14 0)
(4.73737 3.0962e-14 0)
(4.73737 4.64614e-14 0)
(4.73737 8.52314e-14 0)
(4.73737 4.77249e-14 0)
(4.73737 -2.63345e-14 0)
(4.73737 -5.57696e-14 0)
(4.73737 -1.03631e-13 0)
(4.73737 -9.4593e-14 0)
(4.73737 -6.47512e-14 0)
(4.73737 -4.50778e-14 0)
(4.73737 -6.63348e-14 0)
(4.73737 3.10454e-14 0)
(4.73737 1.56137e-13 0)
(4.73737 1.58111e-13 0)
(4.73737 1.40938e-13 0)
(4.73737 7.65399e-14 0)
(4.73737 8.84453e-14 0)
(4.73737 1.31629e-13 0)
(4.73737 9.77802e-14 0)
(4.73737 1.7433e-14 0)
(4.73737 1.85665e-14 0)
(4.73737 3.51694e-14 0)
(4.73737 7.75134e-14 0)
(4.73737 1.11189e-13 0)
(4.73737 6.13406e-14 0)
(4.73737 -3.62263e-14 0)
(4.73737 -3.77899e-14 0)
(4.73737 -1.80164e-14 0)
(4.73737 3.16784e-14 0)
(4.73737 -1.29922e-14 0)
(4.73737 -1.17854e-14 0)
(4.73737 -2.35274e-14 0)
(4.73737 -3.38992e-14 0)
(4.73737 1.07719e-14 0)
(4.73737 7.16524e-14 0)
(4.73737 8.21975e-14 0)
(4.73737 3.79966e-14 0)
(4.73737 -2.5001e-14 0)
(4.73737 -1.17754e-14 0)
(4.73737 -2.20705e-15 0)
(4.73737 -4.54078e-15 0)
(4.73737 2.2924e-14 0)
(4.73737 8.14074e-14 0)
(4.73737 9.27227e-14 0)
(4.73737 8.10407e-14 0)
(4.73737 8.51714e-14 0)
(4.73737 7.28192e-14 0)
(4.73737 5.18023e-14 0)
(4.73737 2.8975e-14 0)
(4.73737 3.44393e-15 0)
(4.73737 -5.6043e-15 0)
(4.73737 -5.90069e-14 0)
(4.73737 -7.98004e-14 0)
(4.73737 -7.48263e-14 0)
(4.73737 -3.20722e-14 0)
(4.73737 -5.46094e-15 0)
(4.73737 -1.18821e-14 0)
(4.73737 2.89717e-15 0)
(4.73737 -1.39114e-13 0)
(4.73737 -2.16164e-13 0)
(4.73737 -1.85835e-13 0)
(4.73737 -1.74457e-13 0)
(4.73737 -6.40311e-14 0)
(4.73737 4.38676e-14 0)
(4.73737 5.55963e-14 0)
(4.73737 7.52563e-14 0)
(4.73737 2.33107e-14 0)
(4.73737 -1.56027e-15 0)
(4.73737 3.55482e-14 0)
(4.73737 -1.3509e-14 0)
(4.73737 -3.70731e-15 0)
(4.73737 -2.06702e-15 0)
(4.73737 -2.40308e-14 0)
(4.73737 -2.54577e-14 0)
(4.73737 -1.85965e-14 0)
(4.73737 -1.58427e-14 0)
(4.73737 -4.62747e-15 0)
(4.73737 -4.17505e-14 0)
(4.73737 -6.7685e-14 0)
(4.73737 -9.42629e-14 0)
(4.73737 -8.21308e-14 0)
(4.73737 -5.42027e-14 0)
(4.73737 -1.94367e-14 0)
(4.73737 4.54078e-14 0)
(4.73737 1.42461e-13 0)
(4.73737 2.21565e-13 0)
(4.73737 2.6783e-13 0)
(4.73737 2.84619e-13 0)
(4.73737 2.28363e-13 0)
(4.73737 1.26902e-13 0)
(4.73737 7.46796e-14 0)
(4.73737 -1.61761e-14 0)
(4.73737 -7.37127e-14 0)
(4.73737 -8.86786e-14 0)
(4.73737 -6.82851e-14 0)
(4.73737 -1.49192e-14 0)
(4.73737 -3.39925e-14 0)
(4.73737 -1.13266e-13 0)
(4.73737 -6.9532e-14 0)
(4.73737 -2.76081e-14 0)
(4.73737 -4.01269e-14 0)
(4.73737 -5.2229e-14 0)
(4.73737 -3.79332e-14 0)
(4.73737 -9.44963e-14 0)
(4.73737 -6.38444e-14 0)
(4.73737 -4.90185e-14 0)
(4.73737 -6.31209e-14 0)
(4.73737 -8.22575e-14 0)
(4.73737 -7.61046e-14 0)
(4.73737 -1.06452e-14 0)
(4.73737 -9.71501e-15 0)
(4.73737 1.07352e-14 0)
(4.73737 2.01835e-14 0)
(4.73737 -5.99404e-14 0)
(4.73737 -7.06355e-14 0)
(4.73737 -4.97686e-14 0)
(4.73737 -3.1152e-14 0)
(4.73737 -3.12554e-14 0)
(4.73737 -1.26388e-14 0)
(4.73737 4.02003e-14 0)
(4.73737 1.62261e-14 0)
(4.73737 -7.37161e-14 0)
(4.73737 -1.32956e-13 0)
(4.73737 -1.45742e-13 0)
(4.73737 -1.31389e-13 0)
(4.73737 -4.71381e-14 0)
(4.73737 2.57044e-14 0)
(4.73737 9.75002e-14 0)
(4.73737 1.31226e-13 0)
(4.73737 6.45211e-14 0)
(4.73737 1.23055e-14 0)
(4.73737 -5.74766e-15 0)
(4.73737 -2.74747e-14 0)
(4.73737 -8.67616e-14 0)
(4.73737 -9.4333e-14 0)
(4.73737 -8.18641e-14 0)
(4.73737 -8.30543e-14 0)
(4.73737 -7.08089e-14 0)
(4.73737 7.70133e-15 0)
(4.73737 3.38658e-14 0)
(4.73737 2.9005e-16 0)
(4.73737 1.00751e-14 0)
(4.73737 -3.87767e-14 0)
(4.73737 -1.49859e-14 0)
(4.73737 -2.10636e-14 0)
(4.73737 1.08252e-14 0)
(4.73737 2.77715e-15 0)
(4.73737 -1.916e-14 0)
(4.73737 -6.40409e-14 0)
(4.73737 1.98768e-14 0)
(4.73737 1.11586e-14 0)
(4.73737 1.01351e-15 0)
(4.73737 7.45795e-15 0)
(4.73737 6.67449e-15 0)
(4.73737 2.39908e-14 0)
(4.73737 3.45926e-14 0)
(4.73737 2.92484e-14 0)
(4.73737 4.73615e-14 0)
(4.73737 1.06062e-13 0)
(4.73737 1.36507e-13 0)
(4.73737 1.55097e-13 0)
(4.73737 5.44161e-14 0)
(4.73737 -1.22254e-14 0)
(4.73737 -1.12006e-13 0)
(4.73737 -2.15197e-13 0)
(4.73737 -2.21755e-13 0)
(4.73737 -1.7325e-13 0)
(4.73737 -1.09292e-13 0)
(4.73737 -7.47129e-14 0)
(4.73737 -7.58464e-14 0)
(4.73737 -5.62664e-14 0)
(4.73737 -6.38777e-15 0)
(4.73737 -1.45825e-14 0)
(4.73737 -4.01103e-14 0)
(4.73737 -4.4541e-15 0)
(4.73737 -1.41658e-14 0)
(4.73737 -7.17124e-15 0)
(4.73737 -1.99835e-14 0)
(4.73737 -9.92338e-14 0)
(4.73737 2.3124e-14 0)
(4.73737 5.57596e-14 0)
(4.73737 8.23242e-14 0)
(4.73737 9.39529e-14 0)
(4.73737 1.37867e-13 0)
(4.73737 1.87249e-13 0)
(4.73737 2.08876e-13 0)
(4.73737 1.40958e-13 0)
(4.73737 7.99005e-14 0)
(4.73737 6.06032e-14 0)
(4.73737 2.28973e-14 0)
(4.73737 3.17488e-14 0)
(4.73737 1.01951e-14 0)
(4.73737 -2.09236e-14 0)
(4.73737 1.38391e-14 0)
(4.73737 4.22106e-14 0)
(4.73737 4.75182e-14 0)
(4.73737 6.7545e-15 0)
(4.73737 -6.9512e-14 0)
(4.73737 -1.07772e-13 0)
(4.73737 -8.63016e-14 0)
(4.73737 5.49295e-14 0)
(4.73737 1.51776e-13 0)
(4.73737 1.59041e-13 0)
(4.73737 1.19881e-13 0)
(4.73737 5.58997e-14 0)
(4.73737 2.17338e-14 0)
(4.73737 -1.54693e-15 0)
(4.73737 -4.98086e-14 0)
(4.73737 -5.08988e-14 0)
(4.73737 -3.55561e-14 0)
(4.73737 -6.62648e-14 0)
(4.73737 -8.40545e-14 0)
(4.73737 -5.10521e-14 0)
(4.73737 1.57494e-14 0)
(4.73737 3.52094e-14 0)
(4.73737 -1.54027e-15 0)
(4.73737 -4.4511e-14 0)
(4.73737 -7.12756e-14 0)
(4.73737 -7.48763e-14 0)
(4.73737 -9.2736e-14 0)
(4.73737 -6.66415e-14 0)
(4.73737 -1.66929e-14 0)
(4.73737 2.10803e-14 0)
(4.73737 -1.61561e-14 0)
(4.73737 -3.54661e-14 0)
(4.73737 -4.56579e-14 0)
(4.73737 -2.40608e-14 0)
(4.73737 6.83451e-15 0)
(4.73737 5.0466e-14 0)
(4.73737 -1.05952e-14 0)
(4.73737 -3.10387e-15 0)
(4.73737 4.35475e-14 0)
(4.73737 7.40261e-14 0)
(4.73737 8.24476e-14 0)
(4.73737 3.32891e-14 0)
(4.73737 -5.71565e-14 0)
(4.73737 -8.94855e-14 0)
(4.73737 -1.99008e-13 0)
(4.73737 -2.54587e-13 0)
(4.73737 -2.65979e-13 0)
(4.73737 -1.83832e-13 0)
(4.73737 -1.25048e-13 0)
(4.73737 -8.4758e-14 0)
(4.73737 -2.65979e-14 0)
(4.73737 6.43111e-14 0)
(4.73737 1.35483e-13 0)
(4.73737 1.66632e-13 0)
(4.73737 1.32093e-13 0)
(4.73737 -3.93901e-14 0)
(4.73737 -5.13655e-14 0)
(4.73737 -3.38592e-14 0)
(4.73737 -4.12605e-14 0)
(4.73737 -4.05303e-14 0)
(4.73737 5.5813e-14 0)
(4.73737 6.79317e-14 0)
(4.73737 9.12658e-14 0)
(4.73737 4.17939e-14 0)
(4.73737 5.66098e-14 0)
(4.73737 9.05456e-14 0)
(4.73737 7.05789e-15 0)
(4.73737 1.84298e-14 0)
(4.73737 -2.45176e-14 0)
(4.73737 -2.44609e-14 0)
(4.73737 -2.97051e-14 0)
(4.73737 -1.10122e-13 0)
(4.73737 -1.28706e-13 0)
(4.73737 -9.8387e-14 0)
(4.73737 -1.04698e-13 0)
(4.73737 -1.43335e-13 0)
(4.73737 -3.72731e-15 0)
(4.73737 -1.04718e-14 0)
(4.73737 2.78148e-14 0)
(4.73737 6.9412e-14 0)
(4.73737 1.03761e-13 0)
(4.73737 6.26308e-14 0)
(4.73737 8.15741e-14 0)
(4.73737 4.4541e-14 0)
(4.73737 -2.27839e-14 0)
(4.73737 -7.62565e-14 0)
(4.73737 -7.59131e-14 0)
(4.73737 -2.16351e-13 0)
(4.73737 -2.98368e-13 0)
(4.73737 -2.91457e-13 0)
(4.73737 -2.02265e-13 0)
(4.73737 -1.27455e-14 0)
(4.73737 1.31816e-13 0)
(4.73737 2.01842e-13 0)
(4.73737 8.09373e-14 0)
(4.73737 1.80231e-14 0)
(4.73737 2.52644e-14 0)
(4.73737 7.29559e-14 0)
(4.73737 1.17677e-13 0)
(4.73737 1.26672e-13 0)
(4.73737 1.08869e-13 0)
(4.73737 7.25192e-14 0)
(4.73737 9.2806e-14 0)
(4.73737 1.16093e-13 0)
(4.73737 1.20204e-13 0)
(4.73737 1.19881e-13 0)
(4.73737 1.49813e-13 0)
(4.73737 1.23945e-13 0)
(4.73737 1.07722e-13 0)
(4.73737 6.11806e-14 0)
(4.73737 8.71117e-14 0)
(4.73737 -1.37867e-13 0)
(4.73737 -2.48566e-13 0)
(4.73737 -2.72384e-13 0)
(4.73737 -2.91364e-13 0)
(4.73737 -2.82893e-13 0)
(4.73737 -9.2716e-15 0)
(4.73737 -2.17938e-14 0)
(4.73737 -9.66734e-14 0)
(4.73737 -8.45279e-14 0)
(4.73737 -4.6298e-14 0)
(4.73737 6.56047e-14 0)
(4.73737 1.1602e-13 0)
(4.73737 1.11169e-13 0)
(4.73737 8.43246e-14 0)
(4.73737 8.27043e-14 0)
(4.73737 5.47428e-15 0)
(4.73737 -2.24439e-14 0)
(4.73737 -1.34023e-14 0)
(4.73737 1.58127e-14 0)
(4.73737 5.06454e-14 0)
(4.73737 9.75735e-14 0)
(4.73737 1.16443e-13 0)
(4.73737 4.39843e-14 0)
(4.73737 4.54012e-14 0)
(4.73737 4.36309e-14 0)
(4.73737 4.92852e-14 0)
(4.73737 7.62098e-14 0)
(4.73737 1.26949e-13 0)
(4.73737 1.68086e-13 0)
(4.73737 1.17497e-13 0)
(4.73737 1.07859e-13 0)
(4.73737 6.00237e-14 0)
(4.73737 5.74132e-14 0)
(4.73737 1.03821e-13 0)
(4.73737 1.1781e-13 0)
(4.73737 1.3548e-13 0)
(4.73737 1.26925e-13 0)
(4.73737 1.29379e-13 0)
(4.73737 8.53447e-14 0)
(4.73737 3.16488e-14 0)
(4.73737 -7.66799e-17 0)
(4.73737 -7.82102e-14 0)
(4.73737 -1.22081e-13 0)
(4.73737 -9.33295e-14 0)
(4.73737 -4.44622e-14 0)
(4.73737 -4.09404e-15 0)
(4.73737 -2.40808e-14 0)
(4.73737 -3.10854e-14 0)
(4.73737 -7.03321e-14 0)
(4.73737 -7.3126e-14 0)
(4.73737 -2.89117e-14 0)
(4.73737 -7.58798e-15 0)
(4.73737 3.36058e-14 0)
(4.73737 2.92617e-14 0)
(4.73737 4.22073e-14 0)
(4.73737 1.24111e-13 0)
(4.73737 1.68839e-13 0)
(4.73737 1.74353e-13 0)
(4.73737 1.82928e-13 0)
(4.73737 2.12093e-13 0)
(4.73737 1.88466e-13 0)
(4.73737 8.85786e-14 0)
(4.73737 4.27474e-14 0)
(4.73737 1.23801e-13 0)
(4.73737 1.41498e-13 0)
(4.73737 9.56032e-14 0)
(4.73737 9.49097e-14 0)
(4.73737 1.00944e-13 0)
(4.73737 1.15833e-13 0)
(4.73737 1.38851e-13 0)
(4.73737 1.5253e-13 0)
(4.73737 1.56104e-13 0)
(4.73737 1.15193e-13 0)
(4.73737 7.21825e-14 0)
(4.73737 1.77697e-14 0)
(4.73737 -3.54761e-14 0)
(4.73737 -3.0702e-14 0)
(4.73737 -2.81949e-14 0)
(4.73737 -2.76814e-14 0)
(4.73737 -5.72799e-14 0)
(4.73737 4.92352e-14 0)
(4.73737 1.18534e-13 0)
(4.73737 1.03194e-13 0)
(4.73737 1.26395e-13 0)
(4.73737 1.86208e-13 0)
(4.73737 2.73814e-14 0)
(4.73737 2.96018e-14 0)
(4.73737 2.2924e-14 0)
(4.73737 2.20571e-14 0)
(4.73737 2.01802e-14 0)
(4.73737 -3.44093e-14 0)
(4.73737 -2.43875e-14 0)
(4.73737 -2.97051e-15 0)
(4.73737 1.08519e-14 0)
(4.73737 1.66229e-14 0)
(4.73737 1.16587e-13 0)
(4.73737 1.76194e-13 0)
(4.73737 1.43708e-13 0)
(4.73737 9.47664e-14 0)
(4.73737 1.26038e-13 0)
(4.73737 1.27739e-13 0)
(4.73737 1.21308e-13 0)
(4.73737 1.87829e-13 0)
(4.73737 1.91873e-13 0)
(4.73737 1.99441e-13 0)
(4.73737 1.88079e-13 0)
(4.73737 1.04845e-13 0)
(4.73737 7.01521e-14 0)
(4.73737 5.78433e-14 0)
(4.73737 6.7495e-14 0)
(4.73737 2.07836e-14 0)
(4.73737 3.75331e-14 0)
(4.73737 1.56527e-14 0)
(4.73737 2.02702e-15 0)
(4.73737 2.76581e-14 0)
(4.73737 -7.77234e-14 0)
(4.73737 -7.96671e-14 0)
(4.73737 -9.04456e-14 0)
(4.73737 -8.04572e-14 0)
(4.73737 -9.78002e-14 0)
(4.73737 -5.40427e-14 0)
(4.73737 7.94904e-14 0)
(4.73737 1.03295e-13 0)
(4.73737 1.95534e-14 0)
(4.73737 -1.39634e-16 0)
(4.73737 -6.5778e-15 0)
(4.73737 1.29789e-14 0)
(4.73737 2.99952e-14 0)
(4.73737 6.58847e-14 0)
(4.73737 5.96936e-14 0)
(4.73737 1.17287e-14 0)
(4.73737 -1.71896e-14 0)
(4.73737 -3.20155e-14 0)
(4.73737 -1.03451e-14 0)
(4.73737 4.18239e-14 0)
(4.73737 1.24085e-13 0)
(4.73737 1.51776e-13 0)
(4.73737 1.56704e-13 0)
(4.73737 1.21334e-13 0)
(4.73737 1.21681e-13 0)
(4.73737 1.5268e-13 0)
(4.73737 1.15977e-13 0)
(4.73737 3.62363e-14 0)
(4.73737 1.48226e-14 0)
(4.73737 8.71484e-15 0)
(4.73737 1.3299e-14 0)
(4.73737 -7.27126e-15 0)
(4.73737 -1.56627e-14 0)
(4.73737 -1.01884e-14 0)
(4.73737 2.64379e-14 0)
(4.73737 2.1477e-14 0)
(4.73737 -7.71567e-14 0)
(4.73737 -1.02271e-13 0)
(4.73737 -6.90653e-14 0)
(4.73737 2.53944e-14 0)
(4.73737 1.99401e-14 0)
(4.73737 5.60397e-14 0)
(4.73737 7.06522e-14 0)
(4.73737 1.48266e-13 0)
(4.73737 1.49092e-13 0)
(4.73737 1.3234e-13 0)
(4.73737 2.69593e-13 0)
(4.73737 4.70665e-13 0)
(4.73737 4.10621e-13 0)
(4.73737 3.07604e-13 0)
(4.73737 -1.73063e-14 0)
(4.73737 -2.25039e-14 0)
(4.73737 2.56411e-14 0)
(4.73737 5.70899e-14 0)
(4.73737 1.1532e-14 0)
(4.73737 2.22705e-15 0)
(4.73737 -1.88733e-14 0)
(4.73737 -8.60149e-15 0)
(4.73737 1.7523e-14 0)
(4.73737 6.62648e-14 0)
(4.73737 6.80084e-14 0)
(4.73737 8.1144e-14 0)
(4.73737 8.45746e-14 0)
(4.73737 1.3686e-13 0)
(4.73737 1.79254e-13 0)
(4.73737 1.43765e-13 0)
(4.73737 3.40926e-14 0)
(4.73737 -2.20271e-14 0)
(4.73737 -7.704e-14 0)
(4.73737 -1.43691e-13 0)
(4.73737 -1.47692e-13 0)
(4.73737 -8.33944e-14 0)
(4.73737 -4.72282e-14 0)
(4.73737 -9.73835e-14 0)
(4.73737 -1.23801e-13 0)
(4.73737 -1.06628e-13 0)
(4.73737 -7.84035e-14 0)
(4.73737 -4.76116e-14 0)
(4.73737 -2.48009e-14 0)
(4.73737 5.38993e-14 0)
(4.73737 8.94955e-14 0)
(4.73737 9.03756e-14 0)
(4.73737 1.44005e-13 0)
(4.73737 1.45398e-13 0)
(4.73737 1.32273e-13 0)
(4.73737 1.78197e-13 0)
(4.73737 1.88549e-13 0)
(4.73737 2.21078e-13 0)
(4.73737 2.82939e-13 0)
(4.73737 2.01665e-13 0)
(4.73737 -4.41743e-15 0)
(4.73737 -1.27222e-14 0)
(4.73737 -2.81382e-15 0)
(4.73737 -2.80048e-15 0)
(4.73737 -4.06037e-14 0)
(4.73737 -5.53229e-14 0)
(4.73737 -2.84849e-14 0)
(4.73737 7.70466e-15 0)
(4.73737 -1.84365e-15 0)
(4.73737 9.00155e-15 0)
(4.73737 4.48244e-14 0)
(4.73737 5.90569e-14 0)
(4.73737 2.07469e-14 0)
(4.73737 1.06685e-15 0)
(4.73737 -3.59929e-14 0)
(4.73737 -1.18557e-13 0)
(4.73737 -2.09436e-13 0)
(4.73737 -2.27706e-13 0)
(4.73737 -1.78574e-13 0)
(4.73737 -1.05948e-13 0)
(4.73737 -9.38862e-14 0)
(4.73737 -6.99221e-14 0)
(4.73737 -5.94903e-14 0)
(4.73737 -6.99554e-14 0)
(4.73737 -1.41538e-13 0)
(4.73737 -9.82103e-14 0)
(4.73737 -7.38227e-14 0)
(4.73737 -4.59946e-14 0)
(4.73737 -4.21406e-14 0)
(4.73737 -3.4646e-14 0)
(4.73737 -2.2934e-14 0)
(4.73737 2.49776e-14 0)
(4.73737 6.27175e-14 0)
(4.73737 5.64497e-14 0)
(4.73737 4.0377e-14 0)
(4.73737 1.21524e-13 0)
(4.73737 1.21038e-13 0)
(4.73737 1.28069e-13 0)
(4.73737 1.9339e-13 0)
(4.73737 2.09333e-13 0)
(4.73737 5.6243e-15 0)
(4.73737 1.74197e-14 0)
(4.73737 -6.54113e-15 0)
(4.73737 -7.04022e-14 0)
(4.73737 -1.08529e-13 0)
(4.73737 -1.03425e-13 0)
(4.73737 -8.40312e-14 0)
(4.73737 -7.71367e-14 0)
(4.73737 -7.89236e-14 0)
(4.73737 -5.16789e-14 0)
(4.73737 9.08824e-15 0)
(4.73737 7.3346e-15 0)
(4.73737 -9.21326e-14 0)
(4.73737 -1.29789e-13 0)
(4.73737 -2.20248e-13 0)
(4.73737 -2.66893e-13 0)
(4.73737 -2.34617e-13 0)
(4.73737 -1.69149e-13 0)
(4.73737 -1.21621e-13 0)
(4.73737 -5.44361e-14 0)
(4.73737 5.60097e-15 0)
(4.73737 -3.26056e-15 0)
(4.73737 -5.31592e-14 0)
(4.73737 -9.87871e-14 0)
(4.73737 -1.32006e-13 0)
(4.73737 -2.7258e-14 0)
(4.73737 4.64113e-14 0)
(4.73737 9.21893e-14 0)
(4.73737 1.01374e-13 0)
(4.73737 -1.84432e-14 0)
(4.73737 -1.00911e-13 0)
(4.73737 -1.24101e-13 0)
(4.73737 -9.85437e-14 0)
(4.73737 -1.02534e-13 0)
(4.73737 -4.4341e-15 0)
(4.73737 7.13123e-14 0)
(4.73737 1.06915e-13 0)
(4.73737 1.11066e-13 0)
(4.73737 1.04115e-13 0)
(4.73737 2.04388e-13 0)
(4.73737 1.70229e-14 0)
(4.73737 1.1522e-14 0)
(4.73737 -9.67834e-15 0)
(4.73737 -3.75732e-14 0)
(4.73737 -5.61897e-14 0)
(4.73737 -5.6233e-14 0)
(4.73737 -5.15556e-14 0)
(4.73737 -2.03935e-14 0)
(4.73737 1.39424e-14 0)
(4.73737 1.12419e-14 0)
(4.73737 -5.16656e-14 0)
(4.73737 -9.48864e-14 0)
(4.73737 -7.41261e-14 0)
(4.73737 -8.87153e-14 0)
(4.73737 -1.7583e-13 0)
(4.73737 -2.09323e-13 0)
(4.73737 -1.62855e-13 0)
(4.73737 -1.13816e-13 0)
(4.73737 -1.22701e-13 0)
(4.73737 -4.8485e-14 0)
(4.73737 8.34811e-15 0)
(4.73737 3.78365e-14 0)
(4.73737 -1.32956e-14 0)
(4.73737 -6.48579e-14 0)
(4.73737 -4.10971e-14 0)
(4.73737 -1.91033e-15 0)
(4.73737 2.39041e-14 0)
(4.73737 8.92487e-14 0)
(4.73737 1.06125e-13 0)
(4.73737 1.06638e-13 0)
(4.73737 4.39343e-14 0)
(4.73737 -4.72848e-14 0)
(4.73737 4.61413e-15 0)
(4.73737 6.04104e-15 0)
(4.73737 6.70516e-14 0)
(4.73737 3.28723e-14 0)
(4.73737 1.77397e-14 0)
(4.73737 1.17387e-14 0)
(4.73737 -2.99618e-14 0)
(4.73737 -1.714e-14 0)
(4.73737 -1.11019e-15 0)
(4.73737 4.16739e-15 0)
(4.73737 2.56111e-14 0)
(4.73737 3.59462e-14 0)
(4.73737 3.99002e-14 0)
(4.73737 1.27689e-15 0)
(4.73737 -2.50343e-14 0)
(4.73737 -2.94184e-14 0)
(4.73737 6.98787e-15 0)
(4.73737 6.44111e-15 0)
(4.73737 2.11703e-15 0)
(4.73737 1.42391e-14 0)
(4.73737 3.73731e-14 0)
(4.73737 1.82298e-14 0)
(4.73737 -4.02136e-14 0)
(4.73737 -7.92203e-14 0)
(4.73737 -8.65816e-14 0)
(4.73737 -7.65132e-14 0)
(4.73737 -6.32543e-14 0)
(4.73737 -4.71948e-14 0)
(4.73737 -5.81734e-14 0)
(4.73737 -6.81851e-14 0)
(4.73737 -9.02556e-14 0)
(4.73737 -5.804e-14 0)
(4.73737 -4.95252e-14 0)
(4.73737 -4.71515e-14 0)
(4.73737 -1.12269e-13 0)
(4.73737 -9.64e-14 0)
(4.73737 -4.97653e-14 0)
(4.73737 2.79815e-14 0)
(4.73737 4.04403e-15 0)
(4.73737 5.70765e-15 0)
(4.73737 8.55048e-14 0)
(4.73737 1.17717e-13 0)
(4.73737 1.26362e-13 0)
(4.73737 8.16108e-14 0)
(4.73737 -5.82334e-14 0)
(4.73737 -1.32186e-13 0)
(4.73737 -1.58664e-13 0)
(4.73737 -1.53467e-13 0)
(4.73737 -5.06421e-15 0)
(4.73737 9.89504e-15 0)
(4.73737 4.90851e-14 0)
(4.73737 3.90201e-14 0)
(4.73737 3.66263e-14 0)
(4.73737 2.69913e-14 0)
(4.73737 -1.28856e-14 0)
(4.73737 -1.65829e-14 0)
(4.73737 -4.2604e-14 0)
(4.73737 -1.23388e-14 0)
(4.73737 3.92234e-14 0)
(4.73737 4.24307e-14 0)
(4.73737 -5.96103e-15 0)
(4.73737 1.34923e-14 0)
(4.73737 3.73431e-14 0)
(4.73737 1.147e-13 0)
(4.73737 1.42311e-13 0)
(4.73737 1.22411e-13 0)
(4.73737 1.00181e-13 0)
(4.73737 5.86635e-14 0)
(4.73737 -1.14186e-14 0)
(4.73737 -3.0872e-14 0)
(4.73737 -4.69548e-14 0)
(4.73737 -4.09304e-14 0)
(4.73737 -8.89154e-14 0)
(4.73737 -1.59248e-13 0)
(4.73737 -2.23735e-13 0)
(4.73737 -1.80851e-13 0)
(4.73737 -9.8727e-14 0)
(4.73737 -2.36808e-14 0)
(4.73737 -1.38157e-14 0)
(4.73737 -2.51944e-14 0)
(4.73737 -4.11738e-14 0)
(4.73737 6.10105e-15 0)
(4.73737 5.94969e-14 0)
(4.73737 1.42628e-13 0)
(4.73737 1.18734e-13 0)
(4.73737 -1.45358e-14 0)
(4.73737 -1.41101e-13 0)
(4.73737 -2.32991e-13 0)
(4.73737 -1.05285e-14 0)
(4.73737 -1.69029e-15 0)
(4.73737 -1.20854e-14 0)
(4.73737 -3.89267e-14 0)
(4.73737 -1.97067e-14 0)
(4.73737 3.51761e-14 0)
(4.73737 5.19856e-14 0)
(4.73737 6.96987e-14 0)
(4.73737 7.3196e-14 0)
(4.73737 9.50364e-14 0)
(4.73737 7.56564e-14 0)
(4.73737 2.52877e-14 0)
(4.73737 -3.03386e-16 0)
(4.73737 1.07619e-14 0)
(4.73737 9.39062e-14 0)
(4.73737 1.30856e-13 0)
(4.73737 1.11396e-13 0)
(4.73737 7.25659e-14 0)
(4.73737 5.20857e-14 0)
(4.73737 3.96068e-15 0)
(4.73737 -7.48496e-14 0)
(4.73737 -8.4648e-14 0)
(4.73737 -7.88636e-14 0)
(4.73737 -9.38029e-14 0)
(4.73737 -1.10112e-13 0)
(4.73737 -1.79684e-13 0)
(4.73737 -1.7132e-13 0)
(4.73737 -1.33433e-13 0)
(4.73737 -3.92201e-14 0)
(4.73737 3.89967e-14 0)
(4.73737 5.10788e-14 0)
(4.73737 6.24108e-14 0)
(4.73737 4.33908e-14 0)
(4.73737 -7.40128e-15 0)
(4.73737 1.19354e-14 0)
(4.73737 -1.79031e-15 0)
(4.73737 -5.15889e-14 0)
(4.73737 -9.87937e-14 0)
(4.73737 -1.19931e-13 0)
(4.73737 -1.77861e-13 0)
(4.73737 8.89487e-15 0)
(4.73737 1.60594e-14 0)
(4.73737 1.50259e-14 0)
(4.73737 1.00517e-14 0)
(4.73737 -7.60131e-16 0)
(4.73737 -1.1372e-14 0)
(4.73737 7.56797e-16 0)
(4.73737 6.62014e-14 0)
(4.73737 9.66134e-14 0)
(4.73737 7.79268e-14 0)
(4.73737 6.97821e-14 0)
(4.73737 7.77501e-14 0)
(4.73737 6.00537e-14 0)
(4.73737 3.64763e-14 0)
(4.73737 2.5121e-14 0)
(4.73737 5.765e-14 0)
(4.73737 1.3759e-14 0)
(4.73737 -2.52377e-15 0)
(4.73737 2.21705e-15 0)
(4.73737 5.56429e-15 0)
(4.73737 -1.73563e-14 0)
(4.73737 -2.84816e-14 0)
(4.73737 -4.66614e-14 0)
(4.73737 -8.36011e-14 0)
(4.73737 -5.83334e-14 0)
(4.73737 -4.45877e-14 0)
(4.73737 -5.66598e-14 0)
(4.73737 -9.84103e-14 0)
(4.73737 -1.11729e-13 0)
(4.73737 -4.76149e-14 0)
(4.73737 3.87567e-14 0)
(4.73737 7.17491e-14 0)
(4.73737 5.66931e-14 0)
(4.73737 5.88802e-14 0)
(4.73737 1.39207e-13 0)
(4.73737 8.78085e-14 0)
(4.73737 3.57528e-14 0)
(4.73737 -1.69263e-14 0)
(4.73737 -7.83202e-14 0)
(4.73737 -1.38029e-13 0)
(4.73737 1.46692e-14 0)
(4.73737 -1.00751e-14 0)
(4.73737 1.21554e-14 0)
(4.73737 7.02955e-14 0)
(4.73737 6.9652e-14 0)
(4.73737 1.44358e-14 0)
(4.73737 1.81031e-14 0)
(4.73737 2.32707e-14 0)
(4.73737 3.20055e-16 0)
(4.73737 -3.17055e-14 0)
(4.73737 -2.06969e-14 0)
(4.73737 -3.91768e-14 0)
(4.73737 -5.73432e-14 0)
(4.73737 2.05335e-14 0)
(4.73737 3.76532e-14 0)
(4.73737 2.3124e-14 0)
(4.73737 5.34692e-14 0)
(4.73737 1.15143e-13 0)
(4.73737 1.13106e-13 0)
(4.73737 1.11636e-13 0)
(4.73737 1.40461e-13 0)
(4.73737 1.28656e-13 0)
(4.73737 7.99671e-14 0)
(4.73737 1.06328e-13 0)
(4.73737 1.1618e-13 0)
(4.73737 5.93069e-14 0)
(4.73737 -5.10722e-14 0)
(4.73737 -1.54043e-13 0)
(4.73737 -1.14957e-13 0)
(4.73737 1.46959e-14 0)
(4.73737 9.54198e-14 0)
(4.73737 1.10689e-13 0)
(4.73737 2.11737e-14 0)
(4.73737 5.43761e-15 0)
(4.73737 -1.62795e-14 0)
(4.73737 -2.06036e-15 0)
(4.73737 3.34724e-15 0)
(4.73737 -2.77781e-14 0)
(4.73737 -1.03275e-13 0)
(4.73737 -1.09624e-13 0)
(4.73737 -4.77749e-15 0)
(4.73737 -2.46409e-14 0)
(4.73737 -4.2444e-14 0)
(4.73737 -2.5361e-14 0)
(4.73737 1.63795e-14 0)
(4.73737 4.07204e-14 0)
(4.73737 3.55895e-14 0)
(4.73737 1.30523e-14 0)
(4.73737 2.53177e-14 0)
(4.73737 -6.25441e-15 0)
(4.73737 -1.01784e-14 0)
(4.73737 -6.82785e-15 0)
(4.73737 2.13704e-14 0)
(4.73737 4.17139e-14 0)
(4.73737 2.61812e-14 0)
(4.73737 -7.43128e-15 0)
(4.73737 1.32256e-14 0)
(4.73737 2.02868e-14 0)
(4.73737 2.68213e-14 0)
(4.73737 9.01889e-14 0)
(4.73737 7.11023e-14 0)
(4.73737 5.36593e-14 0)
(4.73737 4.6198e-14 0)
(4.73737 7.00654e-14 0)
(4.73737 3.37358e-14 0)
(4.73737 4.11704e-14 0)
(4.73737 5.40827e-14 0)
(4.73737 4.58513e-14 0)
(4.73737 4.4571e-14 0)
(4.73737 7.20591e-14 0)
(4.73737 1.06602e-13 0)
(4.73737 8.23276e-14 0)
(4.73737 -5.66865e-14 0)
(4.73737 -7.36694e-14 0)
(4.73737 -2.3074e-14 0)
(4.73737 -2.23972e-14 0)
(4.73737 -2.91917e-14 0)
(4.73737 -4.72048e-14 0)
(4.73737 -7.42995e-14 0)
(4.73737 -4.99239e-14 0)
(4.73737 -1.81398e-14 0)
(4.73737 -7.33127e-15 0)
(4.73737 -3.18988e-14 0)
(4.73737 -3.18455e-14 0)
(4.73737 -2.44075e-14 0)
(4.73737 2.23172e-14 0)
(4.73737 7.9237e-14 0)
(4.73737 1.09419e-13 0)
(4.73737 1.02604e-13 0)
(4.73737 7.32493e-14 0)
(4.73737 4.66381e-14 0)
(4.73737 5.9567e-14 0)
(4.73737 6.62481e-14 0)
(4.73737 5.27091e-14 0)
(4.73737 2.4901e-14 0)
(4.73737 -3.12454e-14 0)
(4.73737 -4.68948e-14 0)
(4.73737 -5.88102e-14 0)
(4.73737 -5.07688e-14 0)
(4.73737 -6.42044e-14 0)
(4.73737 -1.63495e-13 0)
(4.73737 -1.95991e-13 0)
(4.73737 -2.09616e-13 0)
(4.73737 -1.94004e-13 0)
(4.73737 -1.40348e-13 0)
(4.73737 -9.21526e-14 0)
(4.73737 -1.7603e-15 0)
(4.73737 9.19392e-14 0)
(4.73737 3.33024e-14 0)
(4.73737 -5.19423e-15 0)
(4.73737 -8.38145e-15 0)
(4.73737 -8.36144e-15 0)
(4.73737 -4.35309e-14 0)
(4.73737 -6.41811e-14 0)
(4.73737 -8.36478e-14 0)
(4.73737 -1.61408e-13 0)
(4.73737 -1.67806e-13 0)
(4.73737 -1.93623e-13 0)
(4.73737 -1.90823e-13 0)
(4.73737 -1.51057e-13 0)
(4.73737 -7.60131e-15 0)
(4.73737 -5.47094e-15 0)
(4.73737 4.16739e-15 0)
(4.73737 1.94167e-14 0)
(4.73737 2.43742e-14 0)
(4.73737 2.43575e-14 0)
(4.73737 5.24757e-14 0)
(4.73737 9.53565e-14 0)
(4.73737 4.92485e-14 0)
(4.73737 2.87083e-14 0)
(4.73737 1.83232e-14 0)
(4.73737 1.1782e-14 0)
(4.73737 1.52326e-14 0)
(4.73737 1.25055e-14 0)
(4.73737 -1.18287e-14 0)
(4.73737 -2.51477e-14 0)
(4.73737 6.47779e-15 0)
(4.73737 2.08069e-14 0)
(4.73737 4.2494e-14 0)
(4.73737 -7.84802e-14 0)
(4.73737 -1.40864e-13 0)
(4.73737 -1.19334e-13 0)
(4.73737 -6.85452e-14 0)
(4.73737 -1.28456e-13 0)
(4.73737 -1.48996e-13 0)
(4.73737 -1.57747e-13 0)
(4.73737 -4.15572e-14 0)
(4.73737 8.48313e-14 0)
(4.73737 4.34208e-14 0)
(4.73737 1.24588e-14 0)
(4.73737 -9.669e-14 0)
(4.73737 -1.11076e-13 0)
(4.73737 -8.60515e-14 0)
(4.73737 -6.9462e-14 0)
(4.73737 -8.74151e-14 0)
(4.73737 -6.09472e-14 0)
(4.73737 -4.54445e-14 0)
(4.73737 -6.7645e-14 0)
(4.73737 -1.16887e-13 0)
(4.73737 -9.76664e-14 0)
(4.73737 2.43109e-14 0)
(4.73737 2.55611e-14 0)
(4.73737 5.68331e-14 0)
(4.73737 4.40576e-14 0)
(4.73737 1.29222e-14 0)
(4.73737 7.19458e-15 0)
(4.73737 -2.55211e-14 0)
(4.73737 -5.28625e-14 0)
(4.73737 -8.43412e-14 0)
(4.73737 -7.3306e-14 0)
(4.73737 -3.60729e-15 0)
(4.73737 -2.96051e-15 0)
(4.73737 3.52394e-15 0)
(4.73737 -3.81433e-14 0)
(4.73737 -8.93154e-14 0)
(4.73737 -3.42626e-14 0)
(4.73737 -1.82498e-14 0)
(4.73737 -2.27873e-14 0)
(4.73737 -1.01811e-13 0)
(4.73737 -1.87312e-13 0)
(4.73737 -1.99614e-13 0)
(4.73737 -1.88786e-13 0)
(4.73737 -1.37767e-13 0)
(4.73737 -1.43635e-13 0)
(4.73737 -1.61885e-13 0)
(4.73737 -1.09312e-13 0)
(4.73737 2.18038e-15 0)
(4.73737 8.5168e-14 0)
(4.73737 -9.93505e-16 0)
(4.73737 -2.83482e-14 0)
(4.73737 -3.22456e-14 0)
(4.73737 -2.18871e-14 0)
(4.73737 -7.71333e-14 0)
(4.73737 -1.27595e-13 0)