/*--------------------------------*- C++ -*----------------------------------*\
| =========                 |                                                 |
| \\      /  F ield         | OpenFOAM: The Open Source CFD Toolbox           |
|  \\    /   O peration     | Version:  2206                                  |
|   \\  /    A nd           | Website:  www.openfoam.com                      |
|    \\/     M anipulation  |                                                 |
\*---------------------------------------------------------------------------*/
FoamFile
{
    version     2.0;
    format      ascii;
    arch        "LSB;label=32;scalar=64";
    class       volVectorField;
    location    "0.08";
    object      U;
}
// * * * * * * * * * * * * * * * * * * * * * * * * * * * * * * * * * * * * * //

dimensions      [0 1 -1 0 0 0 0];

internalField   nonuniform List<vector> 
75
(
(6.71717 -3.24389e-15 0)
(6.71717 -3.22972e-15 0)
(6.71717 1.2548e-14 0)
(6.71717 -9.40037e-15 0)
(6.71717 -1.97951e-16 0)
(6.71717 -9.58499e-18 0)
(6.71717 -3.03552e-15 0)
(6.71717 -2.63837e-15 0)
(6.71717 -2.65713e-15 0)
(6.71717 9.38944e-14 0)
(6.71717 2.86549e-15 0)
(6.71717 2.59837e-15 0)
(6.71717 -1.27751e-14 0)
(6.71717 9.57957e-15 0)
(6.71717 1.67465e-14 0)
(6.71717 -2.97885e-15 0)
(6.71717 -5.66765e-16 0)
(6.71717 1.17479e-15 0)
(6.71717 2.02948e-14 0)
(6.71717 -1.75957e-14 0)
(6.71717 -3.35725e-15 0)
(6.71717 -3.30974e-15 0)
(6.71717 -1.33356e-16 0)
(6.71717 9.65708e-15 0)
(6.71717 3.54378e-14 0)
(6.69541 -0.00601125 0)
(6.65582 0.0695828 0)
(6.6157 0.0727853 0)
(6.55765 0.233714 0)
(6.51746 0.266073 0)
(6.43901 0.499487 0)
(6.40731 0.532748 0)
(6.29973 0.807389 0)
(6.27782 0.859642 0)
(6.14146 1.14759 0)
(6.71717 4.30989e-06 0)
(6.71718 1.06789e-05 0)
(6.72126 -0.0118223 0)
(6.71432 0.00693019 0)
(6.72029 -0.0127065 0)
(6.65392 0.16242 0)
(6.63715 0.217438 0)
(6.45063 0.682011 0)
(6.42957 0.879304 0)
(6.0892 1.68284 0)
(6.71717 -2.80543e-10 0)
(6.71717 -2.39239e-07 0)
(6.71717 5.17577e-07 0)
(6.71717 2.58085e-07 0)
(6.71716 1.28258e-05 0)
(6.71718 -1.54236e-05 0)
(6.71854 -0.00373113 0)
(6.7132 0.00840098 0)
(6.71711 0.00137433 0)
(6.59776 0.422557 0)
(6.71717 4.47857e-13 0)
(6.71717 -2.18654e-09 0)
(6.71717 -6.01754e-11 0)
(6.71717 7.75406e-08 0)
(6.71717 3.33423e-07 0)
(6.71717 -2.54477e-07 0)
(6.71724 -0.000212016 0)
(6.71722 -0.000182591 0)
(6.71722 -0.000153993 0)
(6.71318 0.0217302 0)
(6.71717 3.62465e-14 0)
(6.71717 -1.39172e-10 0)
(6.71717 -4.61793e-11 0)
(6.71717 -2.05125e-10 0)
(6.71717 1.14752e-08 0)
(6.71717 -2.64712e-08 0)
(6.71717 2.08186e-06 0)
(6.71718 -1.78747e-05 0)
(6.71719 -4.38726e-05 0)
(6.71716 0.000123807 0)
)
;

boundaryField
{
    inlet
    {
        type            fixedValue;
        value           uniform (6.71717 0 0);
    }
    outlet
    {
        type            zeroGradient;
    }
    bottom
    {
        type            symmetryPlane;
    }
    top
    {
        type            symmetryPlane;
    }
    obstacle
    {
        type            slip;
    }
    defaultFaces
    {
        type            empty;
    }
}


// ************************************************************************* //
