/*--------------------------------*- C++ -*----------------------------------*\
| =========                 |                                                 |
| \\      /  F ield         | OpenFOAM: The Open Source CFD Toolbox           |
|  \\    /   O peration     | Version:  2206                                  |
|   \\  /    A nd           | Website:  www.openfoam.com                      |
|    \\/     M anipulation  |                                                 |
\*---------------------------------------------------------------------------*/
FoamFile
{
    version     2.0;
    format      ascii;
    arch        "LSB;label=32;scalar=64";
    class       volVectorField;
    location    "0.18";
    object      U;
}
// * * * * * * * * * * * * * * * * * * * * * * * * * * * * * * * * * * * * * //

dimensions      [0 1 -1 0 0 0 0];

internalField   nonuniform List<vector> 
75
(
(3.12121 -6.53279e-15 0)
(3.12121 -5.55346e-15 0)
(3.12121 2.50252e-15 0)
(3.12121 -1.91191e-14 0)
(3.12121 -3.57323e-13 0)
(3.12121 -8.34727e-16 0)
(3.12121 4.29366e-15 0)
(3.12121 3.15805e-15 0)
(3.12121 7.52797e-15 0)
(3.12121 -4.04864e-13 0)
(3.12121 4.2674e-16 0)
(3.12121 1.03768e-15 0)
(3.12121 -4.11117e-14 0)
(3.12121 -2.93772e-14 0)
(3.12121 -3.91924e-14 0)
(3.12121 7.34669e-15 0)
(3.12121 1.80448e-15 0)
(3.12121 2.61629e-15 0)
(3.12121 -2.66238e-14 0)
(3.12121 -2.19585e-13 0)
(3.12121 1.40628e-14 0)
(3.12121 1.25155e-14 0)
(3.12121 3.60491e-14 0)
(3.12121 3.32503e-14 0)
(3.12121 -1.88211e-13 0)
(3.06363 0.000102933 0)
(2.97678 0.0937211 0)
(2.90895 0.139519 0)
(2.81004 0.285512 0)
(2.75791 0.363231 0)
(2.67265 0.519809 0)
(2.61723 0.625963 0)
(2.60815 0.710242 0)
(2.6407 0.750548 0)
(2.68125 0.745053 0)
(3.11648 0.00660827 0)
(3.093 0.0445547 0)
(3.04105 0.143866 0)
(2.95364 0.312223 0)
(2.82939 0.552929 0)
(2.68896 0.807003 0)
(2.57083 0.905134 0)
(2.55769 0.838046 0)
(2.60232 0.811977 0)
(2.66585 0.731654 0)
(3.12123 -3.01844e-05 0)
(3.12109 0.000128489 0)
(3.1197 0.0028748 0)
(3.11177 0.0193214 0)
(3.08456 0.0848249 0)
(3.0288 0.248317 0)
(2.90031 0.572835 0)
(2.71244 0.712808 0)
(2.68323 0.767602 0)
(2.67603 0.655123 0)
(3.12122 -4.80459e-06 0)
(3.12122 -8.98122e-06 0)
(3.1212 1.68637e-05 0)
(3.12124 -0.00010598 0)
(3.11981 0.00322443 0)
(3.1116 0.0283729 0)
(3.02987 0.255979 0)
(2.83681 0.55594 0)
(2.76828 0.779659 0)
(2.55389 0.366323 0)
(3.12121 -1.36125e-07 0)
(3.12121 -2.68931e-06 0)
(3.12121 -2.17794e-06 0)
(3.12122 -9.42675e-06 0)
(3.12123 -2.52907e-05 0)
(3.12075 0.000408404 0)
(3.10214 0.0213597 0)
(2.95626 0.147575 0)
(2.71008 0.498472 0)
(2.50177 0.317873 0)
)
;

boundaryField
{
    inlet
    {
        type            fixedValue;
        value           uniform (3.12121 0 0);
    }
    outlet
    {
        type            zeroGradient;
    }
    bottom
    {
        type            symmetryPlane;
    }
    top
    {
        type            symmetryPlane;
    }
    obstacle
    {
        type            slip;
    }
    defaultFaces
    {
        type            empty;
    }
}


// ************************************************************************* //
