/*--------------------------------*- C++ -*----------------------------------*\
| =========                 |                                                 |
| \\      /  F ield         | OpenFOAM: The Open Source CFD Toolbox           |
|  \\    /   O peration     | Version:  2206                                  |
|   \\  /    A nd           | Website:  www.openfoam.com                      |
|    \\/     M anipulation  |                                                 |
\*---------------------------------------------------------------------------*/
FoamFile
{
    version     2.0;
    format      ascii;
    arch        "LSB;label=32;scalar=64";
    class       volScalarField;
    location    "0.08";
    object      T;
}
// * * * * * * * * * * * * * * * * * * * * * * * * * * * * * * * * * * * * * //

dimensions      [0 0 0 1 0 0 0];

internalField   nonuniform List<scalar> 
4800
(
1
1
1
1
1
1
1
1
1
1
1
1
1
1
1
1
1
1
1
1
1
1
1
1
1
1
1
1
1
1
1
1
1
1
1
1
1
1
1
1
1
1
1
1
1
1
1
1
1
1
1
1
1
1
1
1
1
1
1
1
1
1
1
1
1
1
1
1
1
1
1
1
1
1
1
1
1
1
1
1
1
1
1
1
1
1
1
1
1
1
1
1
1
1
1
1
1
1
1
1
1
1
1
1
1
1
1
1
1
1
1
1
1
1
1
1
1
1
1
1
1
1
1
1
1
1
1
1
1
1
1
1
1
1
1
1
1
1
1
1
1
1
1
1
1
1
1
1
1
1
1
1
1
1
1
1
1
1
1
1
1
1
1
1
1
1
1
1
1
1
1
1
1
1
1
1
1
1
1
1
1
1
1
1
1
1
1
1
1
1
1
1
1
1
1
1
1
1
1
1
1
1
1
1
1
1
1
1
1
1
1
1
1
1
1
1
1
1
1
1
1
1
1
1
1
1
1
1
1
1
1
1
1
1
1
1
1
1
1
1
1
1
1
1
1
1
1
1
1
1
1
1
1
1
1
1
1
1
1
1
1
1
1
1
1
1
1
1
1
1
1
1
1
1
1
1
1
1
1
1
1
1
1
1
1
1
1
1
1
1
1
1
1
1
1
1
1
1
1
1
1
1
1
1
1
1
1
1
1
1
1
1
1
1
1
1
1
1
1
1
1
1
1
1
1
1
1
1
1
1
1
1
1
1
1
1
1
1
1
1
1
1
1
1
1
1
1
1
1
1
1
1
1
1
1
1
1
1
1
1
1
1
1
1
1
1
1
1
1
1
1
1
1
1
1
1
1
1
1
1
1
1
1
1
1
1
1
1
1
1
1
1
1
1
1
1
1
1
1
1
1
1
1
1
1
1
1
1
1
1
1
1
1
1
1
1
1
1
1
1
1
1
1
1
1
1
1
1
1
1
1
1
1
1
1
1
1
1
1
1
1
1
1
1
1
1
1
1
1
1
1
1
1
1
1
1
1
1
1
1
1
1
1
1
1
1
1
1
1
1
1
1
1
1
1
1
1
1
1
1
1
1
1
1
1
1
1
1
1
1
1
1
1
1
1
1
1
1
1
1
1
1
1
1
1
1
1
1
1
1
1
1
1
1
1
1
1
1
1
1
1
1
1
1
1
1
1
1
1
1
1
1
1
1
1
1
1
1
1
1
1
1
1
1
1
1
1
1
1
1
1
1
1
1
1
1
1
1
1
1
1
1
1
1
1
1
1
1
1
1
1
1
1
1
1
1
1
1
1
1
1
1
1
1
1
1
1
1
1
1
1
1
1
1
1
1
1
1
1
1
1
1
1
1
1
1
1
1
1
1
1
1
1
1
1
1
1
1
1
1
1
1
1
1
1
1
1
1
1
1
1
1
1
1
1
1
1
1
1
1
1
1
1
1
1
1
1
1
1
1
1
1
1
1
1
1
1
1
1
1
1
1
1
1
1
1
1
1
1
1
1
1
1
1
1
1
1
1
1
1
1
1
1
1
1
1
1
1
1
1
1
1
1
1
1
1
1
1
1
1
1
1
1
1
1
1
1
1
1
1
1
1
1
1
1
1
1
1
1
1
1
1
1
1
1
1
1
1
1
1
1
1
1
1
1
1
1
1
1
1
1
1
1
1
1
1
1
1
1
1
1
1
1
1
1
1
1
1
1
1
1
1
1
1
1
1
1
1
1
1
1
1
1
1
1
1
1
1
1
1
1
1
1
1
1
1
1
1
1
1
1
1
1
1
1
1
1
1
1
1
1
1
1
1
1
1
1
1
1
1
1
1
1
1
1
1
1
1
1
1
1
1
1
1
1
1
1
1
1
1
1
1
1
1
1
1
1
1
1
1
1
1
1
1
1
1
1
1
1
1
1
1
1
1
1
1
1
1
1
1
1
1
1
1
1
1
1
1
1
1
1
1
1
1
1
1
1
1
1
1
1
1
1
1
1
1
1
1
1
1
1
1
1
1
1
1
1
1
1
1
1
1
1
1
1
1
1
1
1
1
1
1
1
1
1
1
1
1
1
1
1
1
1
1
1
1
1
1
1
1
1
1
1
1
1
1
1
1
1
1
1
1
1
1
1
1
1
1
1
1
1
1
1
1
1
1
1
1
1
1
1
1
1
1
1
1
1
1
1
1
1
1
1
1
1
1
1
1
1
1
1
1
1
1
1
1
1
1
1
1
1
1
1
1
1
1
1
1
1
1
1
1
1
1
1
1
1
1
1
1
1
1
1
1
1
1
1
1
1
1
1
1
1
1
1
1
1
1
1
1
1
1
1
1
1
1
1
1
1
1
1
1
1
1
1
1
1
1
1
1
1
1
1
1
1
1
1
1
1
1
1
1
1
1
1
1
1
1
1
1
1
1
1
1
1
1
1
1
1
1
1
1
1
1
1
1
1
1
1
1
1
1
1
1
1
1
1
1
1
1
1
1
1
1
1
1
1
1
1
1
1
1
1
1
1
1
1
1
1
1
1
1
1
1
1
1
1
1
1
1
1
1
1
1
1
1
1
1
1
1
1
1
1
1
1
1
1
1
1
1
1
1
1
1
1
1
1
1
1
1
1
1
1
1
1
1
1
1
1
1
1
1
1
1
1
1
1
1
1
1
1
1
1
1
1
1
1
1
1
1
1
1
1
1
1
1
1
1
1
1
1
1
1
1
1
1
1
1
1
1
1
1
1
1
1
1
1
1
1
1
1
1
1
1
1
1
1
1
1
1
1
1
1
1
1
1
1
1
1
1
1
1
1
1
1
1
1
1
1
1
1
1
1
1
1
1
1
1
1
1
1
1
1
1
1
1
1
1
1
1
1
1
1
1
1
1
1
1
1
1
1
1
1
1
1
1
1
1
1
1
1
1
1
1
1
1
1
1
1
1
1
1
1
1
1
1
1
1
1
1
1
1
1
1
1
1
1
1
1
1
1
1
1
1
1
1
1
1
1
1
1
1
1
1
1
1
1
1
1
1
1
1
1
1
1
1
1
1
1
1
1
1
1
1
1
1
1
1
1
1
1
1
1
1
1
1
1
1
1
1
1
1
1
1
1
1
1
1
1
1
1
1
1
1
1
1
1
1
1
1
1
1
1
1
1
1
1
1
1
1
1
1
1
1
1
1
1
1
1
1
1
1
1
1
1
1
1
1
1
1
1
1
1
1
1
1
1
1
1
1
1
1
1
1
1
1
1
1
1
1
1
1
1
1
1
1
1
1
1
1
1
1
1
1
1
1
1
1
1
1
1
1
1
1
1
1
1
1
1
1
1
1
1
1
1
1
1
1
1
1
1
1
1
1
1
1
1
1
1
1
1
1
1
1
1
1
1
1
1
1
1
1
1
1
1
1
1
1
1
1
1
1
1
1
1
1
1
1
1
1
1
1
1
1
1
1
1
1
1
1
1
1
1
1
1
1
1
1
1
1
1
1
1
1
1
1
1
1
1
1
1
1
1
1
1
1
1
1
1
1
1
1
1
1
1
1
1
1
1
1
1
1
1
1
1
1
1
1
1
1
1
1
1
1
1
1
1
1
1
1
1
1
1
1
1
1
1
1
1
1
1.07472
1.16827
1.26506
1.3496
1.41285
1.4711
1.50704
1.51835
1.50923
1.48457
1.45121
1.4225
1.40529
1.38826
1.38654
1.38822
1.39307
1.39748
1.3991
1.39958
1.40042
1.40174
1.40383
1.40559
1.40641
1.40702
1.40701
1.40676
1.40666
1.40665
1.40668
1.40663
1.40622
1.40517
1.40323
1.40039
1.39697
1.39334
1.38978
1.38691
1.38487
1.38321
1.38204
1.38155
1.38121
1.38096
1.38066
1.38015
1.37959
1.37898
1.37815
1.37726
1.37638
1.37522
1.37367
1.37213
1.37096
1.37033
1.37033
1.37035
1.37034
1.37117
1.37158
1.37136
1.3714
1.37165
1.37208
1.37244
1.37268
1.37297
1.37334
1.37382
1.37448
1.37527
1.37604
1.3767
1.37727
1.37781
1.37821
1.37936
1.00269
1.01492
1.04049
1.09119
1.15407
1.21693
1.27714
1.33362
1.36812
1.38962
1.42407
1.42692
1.4222
1.4175
1.41237
1.40728
1.40556
1.40292
1.40114
1.40131
1.40234
1.404
1.40562
1.40654
1.40651
1.40684
1.40743
1.40784
1.40826
1.40865
1.40867
1.40842
1.40759
1.40598
1.40359
1.40052
1.39702
1.39328
1.38971
1.38686
1.38478
1.383
1.38173
1.38119
1.38079
1.38049
1.38008
1.37949
1.37895
1.37841
1.37777
1.37702
1.37613
1.37492
1.37334
1.37167
1.37035
1.3695
1.36946
1.36956
1.36969
1.3707
1.37129
1.37116
1.37138
1.37191
1.37254
1.37305
1.3735
1.37389
1.37423
1.37466
1.37522
1.37587
1.37657
1.37718
1.37764
1.37804
1.37843
1.37986
1
1.00004
1.00031
1.0018
1.00816
1.02551
1.07359
1.15003
1.26966
1.36416
1.43449
1.45652
1.45407
1.44851
1.44069
1.42611
1.41267
1.40902
1.40726
1.4075
1.40931
1.41059
1.41035
1.41
1.41006
1.41058
1.41174
1.41284
1.41337
1.41342
1.41327
1.41269
1.41145
1.40953
1.40688
1.40369
1.40022
1.39655
1.39309
1.39032
1.38812
1.38603
1.38425
1.38322
1.38263
1.38217
1.38166
1.38104
1.38045
1.37986
1.37919
1.37853
1.37777
1.37657
1.37487
1.37289
1.37119
1.37026
1.37021
1.37028
1.37063
1.3719
1.37221
1.37208
1.37234
1.37306
1.37388
1.37456
1.37516
1.37554
1.37578
1.37606
1.37652
1.37712
1.37778
1.3784
1.37894
1.37943
1.37983
1.38119
1
1
1
1
1.00001
1.00011
1.00111
1.00609
1.03905
1.13152
1.25338
1.36108
1.41342
1.43974
1.43533
1.43593
1.43632
1.4348
1.4302
1.42429
1.41935
1.41617
1.41413
1.41372
1.41464
1.41625
1.41791
1.41918
1.41901
1.41869
1.41839
1.41786
1.41675
1.41481
1.41208
1.40872
1.40503
1.40123
1.39781
1.39512
1.3929
1.39062
1.38855
1.38713
1.3862
1.38541
1.38457
1.38379
1.38303
1.38226
1.38142
1.38048
1.37949
1.3783
1.37649
1.37414
1.37163
1.37054
1.37048
1.37056
1.3714
1.37325
1.37336
1.37339
1.37395
1.37511
1.37633
1.37723
1.3779
1.37821
1.3783
1.37845
1.37879
1.37932
1.37989
1.38042
1.38092
1.38146
1.38196
1.38344
1
1
1
1
1
1
1
1
1.00021
1.00344
1.02205
1.10754
1.22347
1.3443
1.40077
1.43722
1.45236
1.44999
1.44586
1.43769
1.42323
1.41664
1.4173
1.41885
1.41998
1.42136
1.42172
1.42162
1.42115
1.42102
1.42097
1.4208
1.42012
1.41845
1.4157
1.41194
1.4078
1.40405
1.40113
1.39893
1.39692
1.39469
1.39252
1.39108
1.39003
1.38879
1.3877
1.38671
1.38565
1.38454
1.38333
1.38201
1.38055
1.37927
1.37782
1.37571
1.37337
1.37215
1.37203
1.37208
1.37283
1.37483
1.37492
1.37508
1.37602
1.37755
1.37909
1.3802
1.38093
1.38129
1.38141
1.38155
1.38182
1.3822
1.38263
1.38303
1.38344
1.38396
1.38449
1.38597
1
1
1
1
1
1
1
1
1
1
1.00007
1.0021
1.01744
1.07558
1.20263
1.31054
1.40212
1.41893
1.42774
1.4318
1.42806
1.42401
1.4249
1.4245
1.42383
1.4235
1.42203
1.42103
1.4212
1.42168
1.42199
1.42188
1.42137
1.41972
1.41682
1.41276
1.4083
1.40452
1.40178
1.3998
1.39802
1.39613
1.39436
1.39331
1.39243
1.39159
1.39046
1.38907
1.38757
1.38594
1.38421
1.38242
1.38102
1.37997
1.37862
1.37653
1.3742
1.3729
1.37272
1.37283
1.37378
1.37561
1.37568
1.37608
1.37732
1.3791
1.38089
1.38219
1.38303
1.38349
1.38359
1.38366
1.38386
1.38428
1.38483
1.38536
1.38589
1.38643
1.38694
1.3884
1
1
1
1
1
1
1
1
1
1
1
0.999999
1.00005
1.00098
1.01423
1.06218
1.16945
1.28971
1.37618
1.42314
1.43074
1.43344
1.43245
1.43022
1.42517
1.42336
1.42199
1.42117
1.42129
1.4216
1.42153
1.42118
1.42063
1.4192
1.41635
1.41252
1.4083
1.40444
1.40143
1.39919
1.39739
1.39579
1.3946
1.39374
1.39302
1.39247
1.39124
1.38944
1.38753
1.38566
1.38369
1.38186
1.38072
1.37965
1.3783
1.3764
1.37427
1.37313
1.37286
1.37297
1.37385
1.37558
1.37579
1.37638
1.37785
1.37985
1.38184
1.38325
1.38419
1.38476
1.38485
1.3849
1.38511
1.38558
1.3862
1.38682
1.38741
1.38797
1.38849
1.39009
1
1
1
1
1
1
1
1
1
1
1
1
1
0.999999
1.00004
1.00077
1.00831
1.05848
1.15001
1.27114
1.35101
1.41015
1.42486
1.42394
1.42553
1.42601
1.42491
1.42372
1.42341
1.42284
1.42216
1.42156
1.42024
1.41808
1.41578
1.41289
1.4091
1.405
1.40133
1.39837
1.3961
1.3947
1.39357
1.39262
1.39185
1.39121
1.39042
1.38963
1.38825
1.38613
1.38382
1.38145
1.37933
1.37785
1.37643
1.37494
1.37336
1.37253
1.37241
1.37255
1.37334
1.37496
1.37547
1.37626
1.3779
1.38001
1.38204
1.38349
1.38447
1.38516
1.38546
1.38563
1.3859
1.38627
1.38674
1.38729
1.3879
1.38859
1.38927
1.39111
1
1
1
1
1
1
1
1
1
1
1
1
1
1
1
0.999999
1.00002
1.00077
1.00657
1.04593
1.14318
1.25965
1.33799
1.38589
1.41826
1.42253
1.42325
1.42232
1.4222
1.42147
1.42034
1.41939
1.41786
1.41586
1.4139
1.41128
1.40792
1.40443
1.4012
1.3982
1.39529
1.39276
1.39133
1.3902
1.38919
1.38854
1.38824
1.38765
1.38648
1.38465
1.38241
1.38027
1.37824
1.37606
1.37407
1.37282
1.37193
1.37122
1.37106
1.3712
1.37208
1.37392
1.37479
1.37568
1.37739
1.3796
1.38171
1.38319
1.38421
1.385
1.38544
1.3857
1.38598
1.38634
1.38676
1.38726
1.38785
1.38866
1.38948
1.39153
1
1
1
1
1
1
1
1
1
1
1
1
1
1
1
1
1
1
1.00001
1.00056
1.00683
1.03687
1.13358
1.23989
1.34425
1.37651
1.39693
1.40784
1.41096
1.41395
1.4157
1.41508
1.41363
1.41123
1.40934
1.40701
1.40419
1.4015
1.3984
1.39555
1.39371
1.39218
1.39033
1.38842
1.38684
1.38541
1.384
1.38273
1.38224
1.38162
1.37953
1.37713
1.37497
1.37269
1.37065
1.36986
1.36964
1.36935
1.36914
1.36911
1.3699
1.37213
1.37326
1.37408
1.37579
1.37816
1.38044
1.38203
1.38317
1.38431
1.385
1.38532
1.38561
1.38599
1.38643
1.38692
1.38753
1.38839
1.38923
1.39142
1
1
1
1
1
1
1
1
1
1
1
1
1
1
1
1
1
1
1
1
1.00001
1.00037
1.00673
1.035
1.12038
1.23993
1.33924
1.39334
1.3984
1.40796
1.41276
1.41184
1.41027
1.40733
1.40418
1.40146
1.39858
1.39571
1.39312
1.3914
1.39015
1.38904
1.38799
1.38651
1.38471
1.38256
1.38022
1.37784
1.37673
1.37639
1.37527
1.3731
1.37095
1.36878
1.36709
1.3668
1.36693
1.36699
1.3669
1.36708
1.36813
1.37001
1.37101
1.37231
1.37427
1.37667
1.37905
1.38082
1.38204
1.38318
1.38396
1.38433
1.38463
1.385
1.38548
1.3861
1.38683
1.38771
1.3886
1.39099
1
1
1
1
1
1
1
1
1
1
1
1
1
1
1
1
1
1
1
1
1
1
1.00002
1.00039
1.00535
1.041
1.12258
1.24116
1.33245
1.39152
1.40868
1.41105
1.41131
1.40926
1.40531
1.40168
1.39806
1.3931
1.3887
1.38688
1.38571
1.38489
1.385
1.38487
1.38291
1.37981
1.3766
1.37387
1.37176
1.37088
1.37037
1.36938
1.36753
1.3656
1.36451
1.36432
1.3646
1.36486
1.36475
1.36493
1.36628
1.36754
1.36868
1.37013
1.37191
1.37417
1.37657
1.37855
1.37994
1.38123
1.38229
1.38297
1.38347
1.38391
1.38437
1.38495
1.38569
1.38664
1.38765
1.3903
1
1
1
1
1
1
1
1
1
1
1
1
1
1
1
1
1
1
1
1
1
1
1
1
1.00002
1.00058
1.00568
1.04182
1.13341
1.24906
1.32736
1.38996
1.40598
1.40721
1.40582
1.40331
1.40021
1.39535
1.38874
1.38447
1.3825
1.38096
1.38064
1.38074
1.37976
1.37665
1.37312
1.37061
1.36883
1.36741
1.36699
1.36664
1.36488
1.36337
1.36265
1.3624
1.36264
1.36319
1.36336
1.36362
1.36482
1.36629
1.36708
1.3685
1.37017
1.37214
1.37436
1.37634
1.37786
1.37929
1.38055
1.38139
1.38194
1.38239
1.38287
1.3835
1.38431
1.38535
1.38648
1.3894
1
1
1
1
1
1
1
1
1
1
1
1
1
1
1
1
1
1
1
1
1
1
1
1
1
1
1.00002
1.00068
1.00785
1.04568
1.14606
1.26669
1.34115
1.37255
1.39578
1.39861
1.3969
1.39229
1.38595
1.38126
1.378
1.37581
1.37461
1.37465
1.3747
1.37366
1.37055
1.36804
1.36626
1.36468
1.36414
1.36387
1.36243
1.36146
1.36103
1.36084
1.36112
1.36189
1.36236
1.36275
1.36369
1.36479
1.36538
1.36656
1.3681
1.3699
1.37202
1.3741
1.37591
1.37767
1.37905
1.37994
1.38053
1.38096
1.38142
1.38205
1.38291
1.38401
1.38524
1.38838
1
1
1
1
1
1
1
1
1
1
1
1
1
1
1
1
1
1
1
1
1
1
1
1
1
1
1
1
1.00004
1.00082
1.01093
1.05549
1.17028
1.27696
1.35905
1.3734
1.38042
1.3839
1.38287
1.37883
1.37429
1.37027
1.36875
1.36843
1.3693
1.36939
1.36761
1.36486
1.36311
1.36198
1.36172
1.36144
1.36035
1.35991
1.35983
1.35976
1.36003
1.36102
1.36159
1.36188
1.36269
1.36365
1.36405
1.3649
1.36629
1.36795
1.36997
1.37214
1.37439
1.37645
1.37789
1.37881
1.37937
1.37976
1.38019
1.38078
1.38163
1.38276
1.38406
1.38739
1
1
1
1
1
1
1
1
1
1
1
1
1
1
1
1
1
1
1
1
1
1
1
1
1
1
1
1
1
1
1.00007
1.00136
1.01717
1.07638
1.18223
1.28332
1.35135
1.37853
1.37805
1.37742
1.37667
1.37215
1.3682
1.36621
1.36502
1.36531
1.36415
1.36159
1.36034
1.3599
1.36006
1.3595
1.35905
1.35898
1.35901
1.35906
1.35923
1.36015
1.36091
1.36112
1.36182
1.36277
1.36307
1.36378
1.36503
1.36643
1.36834
1.37075
1.37338
1.37555
1.37706
1.37799
1.37852
1.37887
1.37923
1.37975
1.38056
1.38169
1.38305
1.38659
1
1
1
1
1
1
1
1
1
1
1
1
1
1
1
1
1
1
1
1
1
1
1
1
1
1
1
1
1
1
1
1
1.00018
1.00263
1.02053
1.09698
1.1988
1.28796
1.32821
1.36509
1.37061
1.36896
1.36838
1.3676
1.36423
1.36204
1.36006
1.35859
1.35829
1.35829
1.35906
1.35938
1.3588
1.35811
1.35807
1.3582
1.35839
1.35917
1.3602
1.36058
1.36125
1.36214
1.36239
1.36297
1.36411
1.3654
1.36717
1.36981
1.37262
1.3748
1.37621
1.37708
1.37771
1.37809
1.37841
1.3789
1.37971
1.38087
1.38233
1.38611
1
1
1
1
1
1
1
1
1
1
1
1
1
1
1
1
1
1
1
1
1
1
1
1
1
1
1
1
1
1
1
1
1
1.00001
1.00028
1.00467
1.02747
1.10442
1.2011
1.28249
1.32505
1.34491
1.36264
1.36325
1.36
1.35909
1.36021
1.35999
1.35907
1.35824
1.35794
1.35842
1.35767
1.35684
1.35679
1.35706
1.35737
1.35805
1.35945
1.3601
1.36076
1.36171
1.3619
1.36233
1.36334
1.36473
1.36658
1.36924
1.37201
1.37412
1.37534
1.37613
1.37682
1.37732
1.37777
1.37833
1.37913
1.38033
1.3819
1.38591
1
1
1
1
1
1
1
1
1
1
1
1
1
1
1
1
1
1
1
1
1
1
1
1
1
1
1
1
1
1
1
1
1
1
1
1.00002
1.00046
1.00546
1.03413
1.09619
1.19794
1.27494
1.32949
1.34079
1.34676
1.35684
1.35885
1.35879
1.35643
1.35435
1.35482
1.35605
1.35569
1.35542
1.3555
1.35616
1.35739
1.35825
1.35882
1.35925
1.3598
1.36088
1.3612
1.3617
1.36291
1.36434
1.36616
1.36876
1.3714
1.37328
1.37439
1.37531
1.3762
1.37683
1.37732
1.37794
1.37882
1.3801
1.38179
1.38598
1
1
1
1
1
1
1
1
1
1
1
1
1
1
1
1
1
1
1
1
1
1
1
1
1
1
1
1
1
1
1
1
1
1
1
1
1
1.00003
1.00064
1.00528
1.03338
1.10297
1.18356
1.26891
1.307
1.34254
1.34754
1.34885
1.34901
1.34941
1.35162
1.35652
1.35665
1.35608
1.35546
1.35536
1.35631
1.35753
1.35793
1.35807
1.35838
1.35964
1.36047
1.3612
1.36259
1.36392
1.36554
1.36808
1.3708
1.37244
1.37354
1.37453
1.37552
1.37635
1.377
1.37773
1.37871
1.3801
1.38199
1.38641
1
1
1
1
1
1
1
1
1
1
1
1
1
1
1
1
1
1
1
1
1
1
1
1
1
1
1
1
1
1
1
1
1
1
1
1
1
1
1
1.00003
1.00068
1.00631
1.02758
1.09005
1.1748
1.25307
1.30031
1.33923
1.34703
1.35089
1.35541
1.35553
1.35584
1.35489
1.35267
1.3523
1.35409
1.35626
1.35723
1.3574
1.35737
1.35846
1.35968
1.3605
1.36204
1.36337
1.3648
1.36723
1.36993
1.3715
1.37267
1.37381
1.37502
1.37594
1.37669
1.37754
1.37869
1.38029
1.38255
1.38714
1
1
1
1
1
1
1
1
1
1
1
1
1
1
1
1
1
1
1
1
1
1
1
1
1
1
1
1
1
1
1
1
1
1
1
1
1
1
1
1
1
1.00003
1.0005
1.00468
1.02652
1.07471
1.16293
1.24491
1.29459
1.32545
1.34582
1.34507
1.34725
1.35003
1.34885
1.34922
1.35283
1.35549
1.35669
1.35785
1.35798
1.35799
1.35865
1.35947
1.36131
1.36283
1.36409
1.3664
1.36885
1.3703
1.37166
1.37327
1.37471
1.37569
1.37654
1.37752
1.37882
1.38065
1.38325
1.38789
1
1
1
1
1
1
1
1
1
1
1
1
1
1
1
1
1
1
1
1
1
1
1
1
1
1
1
1
1
1
1
1
1
1
1
1
1
1
1
1
1
1
1
1.00002
1.00046
1.00333
1.02205
1.06753
1.15205
1.22719
1.28797
1.31816
1.33874
1.3515
1.35095
1.35148
1.35386
1.3531
1.3528
1.35511
1.3572
1.3571
1.35764
1.35849
1.36042
1.36258
1.36386
1.36586
1.36838
1.36992
1.3713
1.37297
1.37453
1.3757
1.3767
1.37778
1.3792
1.38121
1.38412
1.3886
1
1
1
1
1
1
1
1
1
1
1
1
1
1
1
1
1
1
1
1
1
1
1
1
1
1
1
1
1
1
1
1
1
1
1
1
1
1
1
1
1
1
1
1
1
1.00001
1.00034
1.0028
1.01765
1.05812
1.1314
1.2193
1.27165
1.31387
1.33831
1.34828
1.35033
1.34847
1.34735
1.35031
1.35475
1.35685
1.35894
1.35995
1.36021
1.36182
1.36313
1.36499
1.36766
1.36917
1.37056
1.37246
1.37419
1.37555
1.37677
1.37804
1.37962
1.38188
1.38516
1.38929
1
1
1
1
1
1
1
1
1
1
1
1
1
1
1
1
1
1
1
1
1
1
1
1
1
1
1
1
1
1
1
1
1
1
1
1
1
1
1
1
1
1
1
1
1
1
1
1.00001
1.00023
1.00215
1.01294
1.0513
1.1207
1.2001
1.27071
1.30784
1.33925
1.34818
1.34888
1.35272
1.35417
1.35486
1.35761
1.35949
1.35921
1.36027
1.36191
1.36407
1.36699
1.36851
1.3699
1.37228
1.37418
1.37564
1.37712
1.37863
1.38038
1.38289
1.38644
1.38986
1
1
1
1
1
1
1
1
1
1
1
1
1
1
1
1
1
1
1
1
1
1
1
1
1
1
1
1
1
1
1
1
1
1
1
1
1
1
1
1
1
1
1
1
1
1
1
1
1
1.00001
1.00015
1.00171
1.01088
1.04063
1.11157
1.19122
1.25812
1.30929
1.33193
1.34797
1.34903
1.3475
1.35117
1.35679
1.35755
1.35908
1.3617
1.36359
1.36674
1.36896
1.37005
1.37233
1.37432
1.37583
1.37748
1.3792
1.3812
1.38408
1.38776
1.39018
1
1
1
1
1
1
1
1
1
1
1
1
1
1
1
1
1
1
1
1
1
1
1
1
1
1
1
1
1
1
1
1
1
1
1
1
1
1
1
1
1
1
1
1
1
1
1
1
1
1
1
1
1.0001
1.00116
1.0087
1.03686
1.09395
1.18479
1.25316
1.29996
1.33886
1.3435
1.35013
1.35673
1.35765
1.35994
1.36273
1.36315
1.36536
1.36824
1.36982
1.37258
1.3748
1.37633
1.37809
1.3801
1.38251
1.38573
1.38887
1.39022
1
1
1
1
1
1
1
1
1
1
1
1
1
1
1
1
1
1
1
1
1
1
1
1
1
1
1
1
1
1
1
1
1
1
1
1
1
1
1
1
1
1
1
1
1
1
1
1
1
1
1
1
1
1
1.00008
1.00093
1.00638
1.03125
1.09335
1.16507
1.2503
1.30387
1.32835
1.34857
1.34983
1.35425
1.36048
1.36129
1.36283
1.36681
1.36925
1.37275
1.37595
1.37778
1.37958
1.38176
1.38455
1.38752
1.3895
1.39013
1
1
1
1
1
1
1
1
1
1
1
1
1
1
1
1
1
1
1
1
1
1
1
1
1
1
1
1
1
1
1
1
1
1
1
1
1
1
1
1
1
1
1
1
1
1
1
1
1
1
1
1
1
1
1
1
1.00005
1.00073
1.00597
1.02663
1.08005
1.17125
1.23667
1.30018
1.33296
1.343
1.35853
1.36119
1.36324
1.36789
1.36976
1.37265
1.3768
1.37913
1.38097
1.38321
1.38587
1.38834
1.38964
1.38992
1
1
1
1
1
1
1
1
1
1
1
1
1
1
1
1
1
1
1
1
1
1
1
1
1
1
1
1
1
1
1
1
1
1
1
1
1
1
1
1
1
1
1
1
1
1
1
1
1
1
1
1
1
1
1
1
1
1
1.00004
1.00054
1.00463
1.02522
1.07703
1.1515
1.24564
1.29266
1.33148
1.35141
1.35578
1.36532
1.36772
1.37038
1.37624
1.37923
1.38095
1.3834
1.38606
1.38832
1.38968
1.39005
1
1
1
1
1
1
1
1
1
1
1
1
1
1
1
1
1
1
1
1
1
1
1
1
1
1
1
1
1
1
1
1
1
1
1
1
1
1
1
1
1
1
1
1
1
1
1
1
1
1
1
1
1
1
1
1
1
1
1
1
1.00003
1.00049
1.00405
1.02085
1.07233
1.15546
1.22599
1.30196
1.33026
1.35105
1.36523
1.36796
1.37578
1.3794
1.3813
1.38462
1.38729
1.38858
1.38947
1.38989
1
1
1
1
1
1
1
1
1
1
1
1
1
1
1
1
1
1
1
1
1
1
1
1
1
1
1
1
1
1
1
1
1
1
1
1
1
1
1
1
1
1
1
1
1
1
1
1
1
1
1
1
1
1
1
1
1
1
1
1
1
1
1.00002
1.00036
1.00361
1.01994
1.06493
1.14438
1.23577
1.28812
1.33839
1.35528
1.36904
1.37597
1.37954
1.38397
1.38714
1.38837
1.3886
1.38896
1
1
1
1
1
1
1
1
1
1
1
1
1
1
1
1
1
1
1
1
1
1
1
1
1
1
1
1
1
1
1
1
1
1
1
1
1
1
1
1
1
1
1
1
1
1
1
1
1
1
1
1
1
1
1
1
1
1
1
1
1
1
1
1
1.00002
1.00031
1.00291
1.01721
1.06357
1.14015
1.22328
1.29823
1.33247
1.36398
1.37526
1.3783
1.38457
1.38897
1.38945
1.38924
1
1
1
1
1
1
1
1
1
1
1
1
1
1
1
1
1
1
1
1
1
1
1
1
1
1
1
1
1
1
1
1
1
1
1
1
1
1
1
1
1
1
1
1
1
1
1
1
1
1
1
1
1
1
1
1
1
1
1
1
1
1
1
1
1
1
1.00001
1.00025
1.00266
1.01536
1.05628
1.13408
1.22039
1.28986
1.34
1.36658
1.37773
1.38307
1.38818
1.38864
1
1
1
1
1
1
1
1
1
1
1
1
1
1
1
1
1
1
1
1
1
1
1
1
1
1
1
1
1
1
1
1
1
1
1
1
1
1
1
1
1
1
1
1
1
1
1
1
1
1
1
1
1
1
1
1
1
1
1
1
1
1
1
1
1
1
1
1
1.00001
1.00019
1.00207
1.01312
1.05024
1.12323
1.21337
1.28819
1.33899
1.36623
1.38002
1.38505
1
1
1
1
1
1
1
1
1
1
1
1
1
1
1
1
1
1
1
1
1
1
1
1
1
1
1
1
1
1
1
1
1
1
1
1
1
1
1
1
1
1
1
1
1
1
1
1
1
1
1
1
1
1
1
1
1
1
1
1
1
1
1
1
1
1
1
1
1
1
1.00001
1.00014
1.00157
1.01039
1.04349
1.11343
1.20224
1.2834
1.33529
1.37138
1
1
1
1
1
1
1
1
1
1
1
1
1
1
1
1
1
1
1
1
1
1
1
1
1
1
1
1
1
1
1
1
1
1
1
1
1
1
1
1
1
1
1
1
1
1
1
1
1
1
1
1
1
1
1
1
1
1
1
1
1
1
1
1
1
1
1
1
1
1
1
1
1
1.00009
1.00114
1.00822
1.03622
1.10592
1.19108
1.313
1
1
1
1
1
1
1
1
1
1
1
1
1
1
1
1
1
1
1
1
1
1
1
1
1
1
1
1
1
1
1
1
1
1
1
1
1
1
1
1
1
1
1
1
1
1
1
1
1
1
1
1
1
1
1
1
1
1
1
1
1
1
1
1
1
1
1
1
1
1
1
1
1
1
1
1.00006
1.0008
1.00718
1.03136
1.16479
1
1
1
1
1
1
1
1
1
1
1
1
1
1
1
1
1
1
1
1
1
1
1
1
1
1
1
1
1
1
1
1
1
1
1
1
1
1
1
1
1
1
1
1
1
1
1
1
1
1
1
1
1
1
1
1
1
1
1
1
1
1
1
1
1
1
1
1
1
1
1
1
1
1
1
1
1
1.00005
1.00068
1.02777
1
1
1
1
1
1
1
1
1
1
1
1
1
1
1
1
1
1
1
1
1
1
1
1
1
1
1
1
1
1
1
1
1
1
1
1
1
1
1
1
1
1
1
1
1
1
1
1
1
1
1
1
1
1
1
1
1
1
1
1
1
1
1
1
1
1
1
1
1
1
1
1
1
1
1
1
1
1
1
1.00094
)
;

boundaryField
{
    inlet
    {
        type            fixedValue;
        value           uniform 1;
    }
    outlet
    {
        type            zeroGradient;
    }
    bottom
    {
        type            symmetryPlane;
    }
    top
    {
        type            symmetryPlane;
    }
    obstacle
    {
        type            zeroGradient;
    }
    defaultFaces
    {
        type            empty;
    }
}


// ************************************************************************* //
