/*--------------------------------*- C++ -*----------------------------------*\
| =========                 |                                                 |
| \\      /  F ield         | OpenFOAM: The Open Source CFD Toolbox           |
|  \\    /   O peration     | Version:  2206                                  |
|   \\  /    A nd           | Website:  www.openfoam.com                      |
|    \\/     M anipulation  |                                                 |
\*---------------------------------------------------------------------------*/
FoamFile
{
    version     2.0;
    format      ascii;
    arch        "LSB;label=32;scalar=64";
    class       volScalarField;
    location    "0.06";
    object      p;
}
// * * * * * * * * * * * * * * * * * * * * * * * * * * * * * * * * * * * * * //

dimensions      [1 -1 -2 0 0 0 0];

internalField   nonuniform List<scalar> 
75
(
1
1
1
1
1
1
1
1
1
1
1
1
1
1
1
1
1
1
1
1
1
1
1
1
1
1.28081
1.74761
2.33578
2.93354
3.38942
3.68693
3.91288
4.07202
4.24166
4.16874
1.00786
1.04778
1.15958
1.38134
1.68226
1.97924
2.23827
2.4825
2.70736
2.94269
1.00003
0.999913
1.00148
1.01401
1.06143
1.16687
1.33467
1.57606
1.86341
2.49131
1
0.999981
0.99996
1.00004
1.00033
1.00396
1.01489
1.04693
1.10582
1.42565
1
0.999999
0.99999
0.999992
0.999991
1.00002
0.99998
1.0008
1.00104
1.02951
)
;

boundaryField
{
    inlet
    {
        type            fixedValue;
        value           uniform 1;
    }
    outlet
    {
        type            zeroGradient;
    }
    bottom
    {
        type            symmetryPlane;
    }
    top
    {
        type            symmetryPlane;
    }
    obstacle
    {
        type            zeroGradient;
    }
    defaultFaces
    {
        type            empty;
    }
}


// ************************************************************************* //
