/*--------------------------------*- C++ -*----------------------------------*\
| =========                 |                                                 |
| \\      /  F ield         | OpenFOAM: The Open Source CFD Toolbox           |
|  \\    /   O peration     | Version:  2206                                  |
|   \\  /    A nd           | Website:  www.openfoam.com                      |
|    \\/     M anipulation  |                                                 |
\*---------------------------------------------------------------------------*/
FoamFile
{
    version     2.0;
    format      ascii;
    arch        "LSB;label=32;scalar=64";
    class       volScalarField;
    location    "0.08";
    object      p;
}
// * * * * * * * * * * * * * * * * * * * * * * * * * * * * * * * * * * * * * //

dimensions      [1 -1 -2 0 0 0 0];

internalField   nonuniform List<scalar> 
4800
(
1
1
1
1
1
1
1
1
1
1
1
1
1
1
1
1
1
1
1
1
1
1
1
1
1
1
1
1
1
1
1
1
1
1
1
1
1
1
1
1
1
1
1
1
1
1
1
1
1
1
1
1
1
1
1
1
1
1
1
1
1
1
1
1
1
1
1
1
1
1
1
1
1
1
1
1
1
1
1
1
1
1
1
1
1
1
1
1
1
1
1
1
1
1
1
1
1
1
1
1
1
1
1
1
1
1
1
1
1
1
1
1
1
1
1
1
1
1
1
1
1
1
1
1
1
1
1
1
1
1
1
1
1
1
1
1
1
1
1
1
1
1
1
1
1
1
1
1
1
1
1
1
1
1
1
1
1
1
1
1
1
1
1
1
1
1
1
1
1
1
1
1
1
1
1
1
1
1
1
1
1
1
1
1
1
1
1
1
1
1
1
1
1
1
1
1
1
1
1
1
1
1
1
1
1
1
1
1
1
1
1
1
1
1
1
1
1
1
1
1
1
1
1
1
1
1
1
1
1
1
1
1
1
1
1
1
1
1
1
1
1
1
1
1
1
1
1
1
1
1
1
1
1
1
1
1
1
1
1
1
1
1
1
1
1
1
1
1
1
1
1
1
1
1
1
1
1
1
1
1
1
1
1
1
1
1
1
1
1
1
1
1
1
1
1
1
1
1
1
1
1
1
1
1
1
1
1
1
1
1
1
1
1
1
1
1
1
1
1
1
1
1
1
1
1
1
1
1
1
1
1
1
1
1
1
1
1
1
1
1
1
1
1
1
1
1
1
1
1
1
1
1
1
1
1
1
1
1
1
1
1
1
1
1
1
1
1
1
1
1
1
1
1
1
1
1
1
1
1
1
1
1
1
1
1
1
1
1
1
1
1
1
1
1
1
1
1
1
1
1
1
1
1
1
1
1
1
1
1
1
1
1
1
1
1
1
1
1
1
1
1
1
1
1
1
1
1
1
1
1
1
1
1
1
1
1
1
1
1
1
1
1
1
1
1
1
1
1
1
1
1
1
1
1
1
1
1
1
1
1
1
1
1
1
1
1
1
1
1
1
1
1
1
1
1
1
1
1
1
1
1
1
1
1
1
1
1
1
1
1
1
1
1
1
1
1
1
1
1
1
1
1
1
1
1
1
1
1
1
1
1
1
1
1
1
1
1
1
1
1
1
1
1
1
1
1
1
1
1
1
1
1
1
1
1
1
1
1
1
1
1
1
1
1
1
1
1
1
1
1
1
1
1
1
1
1
1
1
1
1
1
1
1
1
1
1
1
1
1
1
1
1
1
1
1
1
1
1
1
1
1
1
1
1
1
1
1
1
1
1
1
1
1
1
1
1
1
1
1
1
1
1
1
1
1
1
1
1
1
1
1
1
1
1
1
1
1
1
1
1
1
1
1
1
1
1
1
1
1
1
1
1
1
1
1
1
1
1
1
1
1
1
1
1
1
1
1
1
1
1
1
1
1
1
1
1
1
1
1
1
1
1
1
1
1
1
1
1
1
1
1
1
1
1
1
1
1
1
1
1
1
1
1
1
1
1
1
1
1
1
1
1
1
1
1
1
1
1
1
1
1
1
1
1
1
1
1
1
1
1
1
1
1
1
1
1
1
1
1
1
1
1
1
1
1
1
1
1
1
1
1
1
1
1
1
1
1
1
1
1
1
1
1
1
1
1
1
1
1
1
1
1
1
1
1
1
1
1
1
1
1
1
1
1
1
1
1
1
1
1
1
1
1
1
1
1
1
1
1
1
1
1
1
1
1
1
1
1
1
1
1
1
1
1
1
1
1
1
1
1
1
1
1
1
1
1
1
1
1
1
1
1
1
1
1
1
1
1
1
1
1
1
1
1
1
1
1
1
1
1
1
1
1
1
1
1
1
1
1
1
1
1
1
1
1
1
1
1
1
1
1
1
1
1
1
1
1
1
1
1
1
1
1
1
1
1
1
1
1
1
1
1
1
1
1
1
1
1
1
1
1
1
1
1
1
1
1
1
1
1
1
1
1
1
1
1
1
1
1
1
1
1
1
1
1
1
1
1
1
1
1
1
1
1
1
1
1
1
1
1
1
1
1
1
1
1
1
1
1
1
1
1
1
1
1
1
1
1
1
1
1
1
1
1
1
1
1
1
1
1
1
1
1
1
1
1
1
1
1
1
1
1
1
1
1
1
1
1
1
1
1
1
1
1
1
1
1
1
1
1
1
1
1
1
1
1
1
1
1
1
1
1
1
1
1
1
1
1
1
1
1
1
1
1
1
1
1
1
1
1
1
1
1
1
1
1
1
1
1
1
1
1
1
1
1
1
1
1
1
1
1
1
1
1
1
1
1
1
1
1
1
1
1
1
1
1
1
1
1
1
1
1
1
1
1
1
1
1
1
1
1
1
1
1
1
1
1
1
1
1
1
1
1
1
1
1
1
1
1
1
1
1
1
1
1
1
1
1
1
1
1
1
1
1
1
1
1
1
1
1
1
1
1
1
1
1
1
1
1
1
1
1
1
1
1
1
1
1
1
1
1
1
1
1
1
1
1
1
1
1
1
1
1
1
1
1
1
1
1
1
1
1
1
1
1
1
1
1
1
1
1
1
1
1
1
1
1
1
1
1
1
1
1
1
1
1
1
1
1
1
1
1
1
1
1
1
1
1
1
1
1
1
1
1
1
1
1
1
1
1
1
1
1
1
1
1
1
1
1
1
1
1
1
1
1
1
1
1
1
1
1
1
1
1
1
1
1
1
1
1
1
1
1
1
1
1
1
1
1
1
1
1
1
1
1
1
1
1
1
1
1
1
1
1
1
1
1
1
1
1
1
1
1
1
1
1
1
1
1
1
1
1
1
1
1
1
1
1
1
1
1
1
1
1
1
1
1
1
1
1
1
1
1
1
1
1
1
1
1
1
1
1
1
1
1
1
1
1
1
1
1
1
1
1
1
1
1
1
1
1
1
1
1
1
1
1
1
1
1
1
1
1
1
1
1
1
1
1
1
1
1
1
1
1
1
1
1
1
1
1
1
1
1
1
1
1
1
1
1
1
1
1
1
1
1
1
1
1
1
1
1
1
1
1
1
1
1
1
1
1
1
1
1
1
1
1
1
1
1
1
1
1
1
1
1
1
1
1
1
1
1
1
1
1
1
1
1
1
1
1
1
1
1
1
1
1
1
1
1
1
1
1
1
1
1
1
1
1
1
1
1
1
1
1
1
1
1
1
1
1
1
1
1
1
1
1
1
1
1
1
1
1
1
1
1
1
1
1
1
1
1
1
1
1
1
1
1
1
1
1
1
1
1
1
1
1
1
1
1
1
1
1
1
1
1
1
1
1
1
1
1
1
1
1
1
1
1
1
1
1
1
1
1
1
1
1
1
1
1
1
1
1
1
1
1
1
1
1
1
1
1
1
1
1
1
1
1
1
1
1
1
1
1
1
1
1
1
1
1
1
1
1
1
1
1
1
1
1
1
1
1
1
1
1
1
1
1
1
1
1
1
1
1
1
1
1
1
1
1
1
1
1
1
1
1
1
1
1
1
1
1
1
1
1
1
1
1
1
1
1
1
1
1
1
1
1
1
1
1
1
1
1
1
1
1
1
1
1
1
1
1.25908
1.66354
2.16167
2.77072
3.34367
3.91809
4.7528
5.66365
6.07682
6.4054
7.08233
8.01603
8.174
8.10754
8.24253
8.27436
8.16159
7.75367
7.11749
6.60303
6.17991
5.72797
5.35901
5.21143
5.19433
5.14135
5.0817
5.08633
5.14599
5.26782
5.38662
5.37756
5.38196
5.42584
5.51417
5.57243
5.5666
5.54576
5.54828
5.55608
5.56068
5.55402
5.53772
5.5229
5.52355
5.55594
5.60434
5.63918
5.64766
5.63958
5.61676
5.57971
5.53941
5.51631
5.50371
5.50394
5.53181
5.5966
5.64503
5.66951
5.67782
5.67404
5.65577
5.63008
5.59382
5.55397
5.51563
5.49513
5.49584
5.51832
5.58
5.67015
5.73973
5.77375
5.77786
5.75984
5.71339
5.6379
5.54352
5.47195
1
1
0.999099
0.997899
1.05324
1.10814
1.13538
1.30849
1.68688
2.02979
2.33255
2.87224
3.54408
3.97444
4.39702
4.95122
5.43827
5.49109
5.49677
5.95187
6.2277
6.08777
5.93027
5.85042
5.86174
5.85847
5.77834
5.63776
5.54306
5.51835
5.43115
5.33909
5.31483
5.33686
5.40818
5.47771
5.48397
5.49016
5.51503
5.55171
5.56686
5.56641
5.56228
5.55241
5.5337
5.53028
5.53716
5.55203
5.58463
5.61162
5.61237
5.59832
5.59544
5.59436
5.58472
5.57212
5.56662
5.56283
5.5616
5.56859
5.58527
5.61208
5.63447
5.63582
5.6357
5.63237
5.62028
5.59823
5.57741
5.57272
5.57708
5.57859
5.59253
5.62497
5.66447
5.68465
5.67228
5.63768
5.62222
5.59426
1
1
1
0.999998
0.999998
1
1
1
1
0.999987
0.998262
1.01404
1.10744
1.28322
1.52317
2.05717
2.82012
3.77483
4.77316
5.73634
6.37694
6.46619
6.4954
6.46439
6.41202
6.3746
6.27943
6.11976
5.84857
5.6151
5.45243
5.33155
5.32397
5.3492
5.40812
5.44748
5.4557
5.45939
5.47754
5.51567
5.56314
5.58986
5.59175
5.5868
5.57339
5.54661
5.52717
5.51949
5.52136
5.5474
5.58907
5.62113
5.63888
5.63743
5.62846
5.62408
5.61389
5.58701
5.55038
5.52042
5.51147
5.51925
5.57025
5.64206
5.67679
5.68488
5.68661
5.68434
5.671
5.64189
5.60426
5.55722
5.52614
5.51674
5.52205
5.56559
5.64238
5.69133
5.70412
5.68984
1
1
1
1
1
1
1
1
1
1
1
1
1
1
1
0.998511
1.01089
1.13601
1.50004
2.02168
3.08016
4.05948
4.91755
5.5749
5.68116
5.90609
5.8667
5.77113
5.80583
5.90504
5.89443
5.76932
5.68008
5.66082
5.62765
5.57683
5.43734
5.33058
5.32054
5.34381
5.42269
5.52044
5.57237
5.5866
5.58935
5.57809
5.55845
5.53396
5.50618
5.50149
5.51992
5.55833
5.60612
5.65107
5.6736
5.67382
5.65779
5.61507
5.54925
5.50618
5.48878
5.4884
5.5099
5.56234
5.63522
5.69781
5.7258
5.72575
5.70955
5.67803
5.61311
5.5392
5.49421
5.4874
5.49388
5.51292
5.57655
5.6778
5.7394
5.7198
1
1
1
1
1
1
1
1
1
1
1
1
1
1
1
1
1
1
0.999981
0.99848
1.04707
1.29006
1.63526
2.35921
3.32478
4.36405
5.14142
5.45387
5.9347
6.09529
6.07393
6.07621
6.03705
5.97181
5.87458
5.69108
5.48975
5.36587
5.34827
5.36537
5.42415
5.48803
5.53042
5.55759
5.56182
5.55951
5.56271
5.56124
5.54421
5.52703
5.5294
5.53989
5.55562
5.58623
5.62643
5.64154
5.63969
5.62036
5.60138
5.57963
5.54849
5.52768
5.52899
5.53911
5.55809
5.59082
5.6429
5.68849
5.70189
5.68699
5.65216
5.62367
5.5806
5.53618
5.52773
5.54245
5.56794
5.6061
5.67034
5.69099
1
1
1
1
1
1
1
1
1
1
1
1
1
1
1
1
1
1
1
1
1
1
0.999051
1.00638
1.1073
1.30231
1.88188
2.70785
3.63588
4.46012
4.89072
5.39959
5.65664
5.68695
5.71313
5.76117
5.69158
5.58897
5.55357
5.55316
5.54332
5.53393
5.50765
5.48341
5.4747
5.48434
5.51816
5.5395
5.54513
5.54974
5.55592
5.55257
5.53992
5.53143
5.53609
5.56464
5.60936
5.63761
5.64817
5.65497
5.6546
5.63089
5.57736
5.55683
5.54005
5.53253
5.53396
5.55742
5.60955
5.65882
5.67518
5.66965
5.66514
5.65335
5.62584
5.60255
5.59497
5.59331
5.59518
5.594
1
1
1
1
1
1
1
1
1
1
1
1
1
1
1
1
1
1
1
1
1
1
1
0.999999
1
1
0.998575
1.02577
1.12483
1.54719
2.2694
3.05719
3.97954
4.61004
5.35609
5.72133
5.72729
5.76777
5.78351
5.76296
5.69674
5.5663
5.42214
5.36027
5.3675
5.42124
5.5039
5.57533
5.61238
5.61888
5.58987
5.52379
5.47868
5.46944
5.46959
5.48517
5.5363
5.61506
5.67121
5.6923
5.70395
5.70958
5.68354
5.59023
5.52508
5.49768
5.48903
5.4925
5.51366
5.56537
5.64326
5.69762
5.71396
5.71757
5.71393
5.69445
5.64767
5.60028
5.56661
5.53776
1
1
1
1
1
1
1
1
1
1
1
1
1
1
1
1
1
1
1
1
1
1
1
1
1
1
1
1
1
0.999071
1.00724
1.05288
1.35479
1.91982
2.60406
3.50041
4.20319
5.01212
5.48743
5.52746
5.5338
5.54673
5.47081
5.39664
5.38733
5.42909
5.52564
5.62483
5.6456
5.63717
5.62622
5.59932
5.52047
5.46079
5.45533
5.46369
5.48777
5.5212
5.58087
5.65004
5.7011
5.71844
5.71664
5.69966
5.6472
5.57812
5.5188
5.496
5.49397
5.49795
5.54105
5.63142
5.70929
5.73673
5.73558
5.71844
5.67831
5.6024
5.54978
5.52441
1
1
1
1
1
1
1
1
1
1
1
1
1
1
1
1
1
1
1
1
1
1
1
1
1
1
1
1
1
1
1
1
0.999997
0.999911
1.01892
1.21931
1.67474
2.36259
3.28505
4.05272
4.99186
5.39342
5.52556
5.5532
5.50734
5.5008
5.53487
5.59019
5.62334
5.62423
5.61322
5.59241
5.57629
5.56029
5.55459
5.54403
5.50837
5.48083
5.48207
5.49782
5.53798
5.61532
5.68822
5.70884
5.71653
5.71381
5.67364
5.57783
5.50779
5.50451
5.51663
5.54804
5.596
5.6505
5.68946
5.69848
5.68733
5.66068
5.61955
5.56137
1
1
1
1
1
1
1
1
1
1
1
1
1
1
1
1
1
1
1
1
1
1
1
1
1
1
1
1
1
1
1
1
1
1
1
1
0.998841
1.01287
1.18404
1.52746
2.11234
2.99948
3.89473
4.94355
5.20026
5.22512
5.31832
5.33574
5.37333
5.4314
5.49543
5.56332
5.60694
5.65528
5.68578
5.69075
5.67106
5.56924
5.44196
5.4227
5.44117
5.47245
5.53802
5.65614
5.73409
5.75058
5.75189
5.72989
5.65098
5.56199
5.52099
5.51494
5.52404
5.54233
5.57206
5.61442
5.64841
5.65567
5.64433
5.61336
1
1
1
1
1
1
1
1
1
1
1
1
1
1
1
1
1
1
1
1
1
1
1
1
1
1
1
1
1
1
1
1
1
1
1
1
1
0.999999
1
0.999115
1.0062
1.13541
1.42392
2.07608
2.98671
3.9523
4.91917
5.20607
5.26988
5.28243
5.30345
5.35887
5.52794
5.69617
5.75403
5.76312
5.75234
5.68622
5.57527
5.46878
5.43167
5.43284
5.45377
5.50102
5.58737
5.69076
5.73816
5.73966
5.71986
5.68442
5.63514
5.57891
5.53392
5.52819
5.54066
5.56652
5.59182
5.61844
5.63812
5.62011
1
1
1
1
1
1
1
1
1
1
1
1
1
1
1
1
1
1
1
1
1
1
1
1
1
1
1
1
1
1
1
1
1
1
1
1
1
1
1
1
1
1
0.999188
1.00906
1.15209
1.42886
2.04724
2.92789
4.17295
4.8589
4.95383
5.06131
5.18398
5.36534
5.5936
5.71415
5.71347
5.69224
5.66748
5.6424
5.59502
5.5302
5.47912
5.46775
5.49003
5.51979
5.56465
5.6277
5.68785
5.7084
5.71255
5.70442
5.65947
5.58757
5.55283
5.55238
5.57245
5.5894
5.59269
5.57722
1
1
1
1
1
1
1
1
1
1
1
1
1
1
1
1
1
1
1
1
1
1
1
1
1
1
1
1
1
1
1
1
1
1
1
1
1
1
1
1
1
1
1
1
1
0.999306
1.01195
1.12017
1.44739
2.22238
3.17214
4.38147
4.84862
5.02833
5.19533
5.338
5.42773
5.53613
5.62125
5.69402
5.70778
5.68606
5.66392
5.62007
5.5271
5.47716
5.47378
5.48319
5.53044
5.63536
5.69774
5.70099
5.68181
5.66945
5.65686
5.63936
5.61193
5.58429
5.57171
5.55318
1
1
1
1
1
1
1
1
1
1
1
1
1
1
1
1
1
1
1
1
1
1
1
1
1
1
1
1
1
1
1
1
1
1
1
1
1
1
1
1
1
1
1
1
1
1
1
0.999945
0.999628
1.03576
1.18007
1.60072
2.51673
3.63202
4.58455
4.98278
5.07674
5.11991
5.23576
5.51014
5.70429
5.73453
5.74601
5.76851
5.74232
5.62731
5.48533
5.43578
5.45276
5.50496
5.55975
5.62444
5.66672
5.68087
5.68658
5.68793
5.68609
5.66738
5.63332
5.56595
1
1
1
1
1
1
1
1
1
1
1
1
1
1
1
1
1
1
1
1
1
1
1
1
1
1
1
1
1
1
1
1
1
1
1
1
1
1
1
1
1
1
1
1
1
1
1
1
0.999997
1.00001
0.99975
1.00197
1.0768
1.30071
1.84921
2.83529
4.25472
4.64759
4.85465
5.13384
5.45048
5.59716
5.6977
5.75865
5.76954
5.73483
5.65114
5.56091
5.50492
5.50311
5.52972
5.54869
5.56505
5.58706
5.63358
5.66878
5.67991
5.67354
5.65382
5.62218
1
1
1
1
1
1
1
1
1
1
1
1
1
1
1
1
1
1
1
1
1
1
1
1
1
1
1
1
1
1
1
1
1
1
1
1
1
1
1
1
1
1
1
1
1
1
1
1
1
1
0.999997
0.99999
1.00006
0.999924
1.01291
1.09681
1.55212
2.54794
3.58701
4.52462
5.0444
5.15175
5.21736
5.41631
5.64844
5.69903
5.69989
5.69684
5.70009
5.68554
5.63281
5.56651
5.53815
5.54313
5.55294
5.54918
5.55794
5.57593
5.60398
5.6258
1
1
1
1
1
1
1
1
1
1
1
1
1
1
1
1
1
1
1
1
1
1
1
1
1
1
1
1
1
1
1
1
1
1
1
1
1
1
1
1
1
1
1
1
1
1
1
1
1
1
1
1
1
0.999996
1
0.999865
1.00424
1.09242
1.33236
1.9762
3.32855
4.59492
4.81373
5.03317
5.33605
5.441
5.47796
5.58639
5.71334
5.76212
5.74443
5.69873
5.65998
5.6256
5.58544
5.54639
5.51581
5.50555
5.50693
5.53457
1
1
1
1
1
1
1
1
1
1
1
1
1
1
1
1
1
1
1
1
1
1
1
1
1
1
1
1
1
1
1
1
1
1
1
1
1
1
1
1
1
1
1
1
1
1
1
1
1
1
1
1
1
1
1
0.999995
0.999999
0.999959
1.00076
1.02742
1.20643
1.98893
3.09439
4.05943
4.9836
5.11913
5.14202
5.21383
5.40527
5.63288
5.69407
5.70238
5.71718
5.73555
5.74974
5.72116
5.60818
5.51678
5.47963
5.47909
1
1
1
1
1
1
1
1
1
1
1
1
1
1
1
1
1
1
1
1
1
1
1
1
1
1
1
1
1
1
1
1
1
1
1
1
1
1
1
1
1
1
1
1
1
1
1
1
1
1
1
1
1
1
1
1
1
0.999998
0.999996
0.999958
1.00024
1.03171
1.20784
1.59954
2.61326
4.47913
5.14559
5.12688
5.27181
5.46473
5.47941
5.43891
5.48195
5.6294
5.74708
5.74989
5.72627
5.6846
5.61442
5.50029
1
1
1
1
1
1
1
1
1
1
1
1
1
1
1
1
1
1
1
1
1
1
1
1
1
1
1
1
1
1
1
1
1
1
1
1
1
1
1
1
1
1
1
1
1
1
1
1
1
1
1
1
1
1
1
1
1
1
1
0.999997
0.999996
0.999999
1.00026
1.00946
1.11141
1.827
3.15482
4.30363
5.13256
5.5211
5.51899
5.36792
5.29204
5.32924
5.41476
5.60545
5.73634
5.7421
5.71268
5.62129
1
1
1
1
1
1
1
1
1
1
1
1
1
1
1
1
1
1
1
1
1
1
1
1
1
1
1
1
1
1
1
1
1
1
1
1
1
1
1
1
1
1
1
1
1
1
1
1
1
1
1
1
1
1
1
1
1
1
1
1
1
0.999999
0.999998
0.999978
1.00016
1.02049
1.32881
1.92609
2.92231
4.28814
5.37042
5.5736
5.54343
5.30982
5.26637
5.38136
5.58394
5.6566
5.68416
5.67113
1
1
1
1
1
1
1
1
1
1
1
1
1
1
1
1
1
1
1
1
1
1
1
1
1
1
1
1
1
1
1
1
1
1
1
1
1
1
1
1
1
1
1
1
1
1
1
1
1
1
1
1
1
1
1
1
1
1
1
1
1
1
1
0.999997
0.999997
0.999969
1.00226
1.02581
1.20513
1.80593
3.25939
4.8673
5.41892
5.41183
5.49304
5.52486
5.54362
5.54262
5.54657
5.5424
1
1
1
1
1
1
1
1
1
1
1
1
1
1
1
1
1
1
1
1
1
1
1
1
1
1
1
1
1
1
1
1
1
1
1
1
1
1
1
1
1
1
1
1
1
1
1
1
1
1
1
1
1
1
1
1
1
1
1
1
1
1
1
1
1
0.999996
0.999997
0.999978
1.00067
1.0296
1.40774
2.43933
3.72177
4.88615
5.46557
5.65964
5.69365
5.66475
5.54798
5.48773
1
1
1
1
1
1
1
1
1
1
1
1
1
1
1
1
1
1
1
1
1
1
1
1
1
1
1
1
1
1
1
1
1
1
1
1
1
1
1
1
1
1
1
1
1
1
1
1
1
1
1
1
1
1
1
1
1
1
1
1
1
1
1
1
1
1
1
0.999997
0.999996
1.00002
1.00531
1.10859
1.68917
2.78277
4.05061
5.16566
5.64703
5.7113
5.72979
5.70508
1
1
1
1
1
1
1
1
1
1
1
1
1
1
1
1
1
1
1
1
1
1
1
1
1
1
1
1
1
1
1
1
1
1
1
1
1
1
1
1
1
1
1
1
1
1
1
1
1
1
1
1
1
1
1
1
1
1
1
1
1
1
1
1
1
1
1
1
0.999999
0.999999
0.99999
1.00051
1.01678
1.19004
2.00613
3.4696
4.58068
5.11908
5.59525
5.689
1
1
1
1
1
1
1
1
1
1
1
1
1
1
1
1
1
1
1
1
1
1
1
1
1
1
1
1
1
1
1
1
1
1
1
1
1
1
1
1
1
1
1
1
1
1
1
1
1
1
1
1
1
1
1
1
1
1
1
1
1
1
1
1
1
1
1
1
1
1
0.999999
0.999999
0.999987
1.00177
1.04592
1.41461
2.73034
4.1441
4.89575
5.44414
1
1
1
1
1
1
1
1
1
1
1
1
1
1
1
1
1
1
1
1
1
1
1
1
1
1
1
1
1
1
1
1
1
1
1
1
1
1
1
1
1
1
1
1
1
1
1
1
1
1
1
1
1
1
1
1
1
1
1
1
1
1
1
1
1
1
1
1
1
1
1
1
0.999999
0.999995
1.00008
1.00963
1.1709
2.12814
3.60051
4.92665
1
1
1
1
1
1
1
1
1
1
1
1
1
1
1
1
1
1
1
1
1
1
1
1
1
1
1
1
1
1
1
1
1
1
1
1
1
1
1
1
1
1
1
1
1
1
1
1
1
1
1
1
1
1
1
1
1
1
1
1
1
1
1
1
1
1
1
1
1
1
1
1
1
0.999999
0.999999
0.999998
1.00221
1.07976
1.53111
3.48338
1
1
1
1
1
1
1
1
1
1
1
1
1
1
1
1
1
1
1
1
1
1
1
1
1
1
1
1
1
1
1
1
1
1
1
1
1
1
1
1
1
1
1
1
1
1
1
1
1
1
1
1
1
1
1
1
1
1
1
1
1
1
1
1
1
1
1
1
1
1
1
1
1
1
1
1
0.999996
1.00057
1.01499
1.83241
1
1
1
1
1
1
1
1
1
1
1
1
1
1
1
1
1
1
1
1
1
1
1
1
1
1
1
1
1
1
1
1
1
1
1
1
1
1
1
1
1
1
1
1
1
1
1
1
1
1
1
1
1
1
1
1
1
1
1
1
1
1
1
1
1
1
1
1
1
1
1
1
1
1
1
1
0.999999
0.999998
1.00011
1.10755
1
1
1
1
1
1
1
1
1
1
1
1
1
1
1
1
1
1
1
1
1
1
1
1
1
1
1
1
1
1
1
1
1
1
1
1
1
1
1
1
1
1
1
1
1
1
1
1
1
1
1
1
1
1
1
1
1
1
1
1
1
1
1
1
1
1
1
1
1
1
1
1
1
1
1
1
1
1
1
1.00449
1
1
1
1
1
1
1
1
1
1
1
1
1
1
1
1
1
1
1
1
1
1
1
1
1
1
1
1
1
1
1
1
1
1
1
1
1
1
1
1
1
1
1
1
1
1
1
1
1
1
1
1
1
1
1
1
1
1
1
1
1
1
1
1
1
1
1
1
1
1
1
1
1
1
1
1
1
1
1
1.00005
1
1
1
1
1
1
1
1
1
1
1
1
1
1
1
1
1
1
1
1
1
1
1
1
1
1
1
1
1
1
1
1
1
1
1
1
1
1
1
1
1
1
1
1
1
1
1
1
1
1
1
1
1
1
1
1
1
1
1
1
1
1
1
1
1
1
1
1
1
1
1
1
1
1
1
1
1
1
1
1
1
1
1
1
1
1
1
1
1
1
1
1
1
1
1
1
1
1
1
1
1
1
1
1
1
1
1
1
1
1
1
1
1
1
1
1
1
1
1
1
1
1
1
1
1
1
1
1
1
1
1
1
1
1
1
1
1
1
1
1
1
1
1
1
1
1
1
1
1
1
1
1
1
1
1
1
1
1
1
1
1
1
1
1
1
1
1
1
1
1
1
1
1
1
1
1
1
1
1
1
1
1
1
1
1
1
1
1
1
1
1
1
1
1
1
1
1
1
1
1
1
1
1
1
1
1
1
1
1
1
1
1
1
1
1
1
1
1
1
1
1
1
1
1
1
1
1
1
1
1
1
1
1
1
1
1
1
1
1
1
1
1
1
1
1
1
1
1
1
1
1
1
1
1
1
1
1
1
1
1
1
1
1
1
1
1
1
1
1
1
1
1
1
1
1
1
1
1
1
1
1
1
1
1
1
1
1
1
1
1
1
1
1
1
1
1
1
1
1
1
1
1
1
1
1
1
1
1
1
1
1
1
1
1
1
1
1
1
1
1
1
1
1
1
1
1
1
1
1
1
1
1
1
1
1
1
1
1
1
1
1
1
1
1
1
1
1
1
1
1
1
1
1
1
1
1
1
1
1
1
1
1
1
1
1
1
1
1
1
1
1
1
1
1
1
1
1
1
1
1
1
1
1
1
1
1
1
1
1
1
1
1
1
1
1
1
1
1
1
1
1
1
1
1
1
1
1
1
1
1
1
1
1
1
1
1
1
1
1
1
1
1
1
1
1
1
1
1
1
1
1
1
1
1
1
1
1
1
1
1
1
1
1
1
1
1
1
1
1
1
1
1
1
1
1
1
1
1
1
1
1
1
1
1
1
1
1
1
1
1
1
1
1
1
1
1
1
1
1
1
1
1
1
1
1
1
1
1
1
1
1
1
1
1
1
1
1
1
1
1
1
1
1
1
1
1
1
1
1
1
1
1
1
1
1
1
1
1
1
1
1
1
1
1
1
1
1
1
1
1
1
1
1
1
1
1
1
1
1
1
1
1
1
1
1
1
1
1
1
1
1
1
1
1
1
1
1
1
1
1
1
1
1
1
1
1
1
1
1
1
1
1
1
1
1
1
1
1
1
1
1
1
1
1
1
1
1
1
1
1
1
1
1
1
1
1
1
1
1
1
1
1
1
1
1
1
1
1
1
1
1
1
1
1
1
1
1
1
1
1
1
1
1
1
1
1
1
1
1
1
1
1
1
1
1
1
1
1
1
1
)
;

boundaryField
{
    inlet
    {
        type            fixedValue;
        value           uniform 1;
    }
    outlet
    {
        type            zeroGradient;
    }
    bottom
    {
        type            symmetryPlane;
    }
    top
    {
        type            symmetryPlane;
    }
    obstacle
    {
        type            zeroGradient;
    }
    defaultFaces
    {
        type            empty;
    }
}


// ************************************************************************* //
