/*--------------------------------*- C++ -*----------------------------------*\
| =========                 |                                                 |
| \\      /  F ield         | OpenFOAM: The Open Source CFD Toolbox           |
|  \\    /   O peration     | Version:  2206                                  |
|   \\  /    A nd           | Website:  www.openfoam.com                      |
|    \\/     M anipulation  |                                                 |
\*---------------------------------------------------------------------------*/
FoamFile
{
    version     2.0;
    format      ascii;
    arch        "LSB;label=32;scalar=64";
    class       volScalarField;
    location    "0.08";
    object      T;
}
// * * * * * * * * * * * * * * * * * * * * * * * * * * * * * * * * * * * * * //

dimensions      [0 0 0 1 0 0 0];

internalField   nonuniform List<scalar> 
4800
(
1
1
1
1
1
1
1
1
1
1
1
1
1
1
1
1
1
1
1
1
1
1
1
1
1
1
1
1
1
1
1
1
1
1
1
1
1
1
1
1
1
1
1
1
1
1
1
1
1
1
1
1
1
1
1
1
1
1
1
1
1
1
1
1
1
1
1
1
1
1
1
1
1
1
1
1
1
1
1
1
1
1
1
1
1
1
1
1
1
1
1
1
1
1
1
1
1
1
1
1
1
1
1
1
1
1
1
1
1
1
1
1
1
1
1
1
1
1
1
1
1
1
1
1
1
1
1
1
1
1
1
1
1
1
1
1
1
1
1
1
1
1
1
1
1
1
1
1
1
1
1
1
1
1
1
1
1
1
1
1
1
1
1
1
1
1
1
1
1
1
1
1
1
1
1
1
1
1
1
1
1
1
1
1
1
1
1
1
1
1
1
1
1
1
1
1
1
1
1
1
1
1
1
1
1
1
1
1
1
1
1
1
1
1
1
1
1
1
1
1
1
1
1
1
1
1
1
1
1
1
1
1
1
1
1
1
1
1
1
1
1
1
1
1
1
1
1
1
1
1
1
1
1
1
1
1
1
1
1
1
1
1
1
1
1
1
1
1
1
1
1
1
1
1
1
1
1
1
1
1
1
1
1
1
1
1
1
1
1
1
1
1
1
1
1
1
1
1
1
1
1
1
1
1
1
1
1
1
1
1
1
1
1
1
1
1
1
1
1
1
1
1
1
1
1
1
1
1
1
1
1
1
1
1
1
1
1
1
1
1
1
1
1
1
1
1
1
1
1
1
1
1
1
1
1
1
1
1
1
1
1
1
1
1
1
1
1
1
1
1
1
1
1
1
1
1
1
1
1
1
1
1
1
1
1
1
1
1
1
1
1
1
1
1
1
1
1
1
1
1
1
1
1
1
1
1
1
1
1
1
1
1
1
1
1
1
1
1
1
1
1
1
1
1
1
1
1
1
1
1
1
1
1
1
1
1
1
1
1
1
1
1
1
1
1
1
1
1
1
1
1
1
1
1
1
1
1
1
1
1
1
1
1
1
1
1
1
1
1
1
1
1
1
1
1
1
1
1
1
1
1
1
1
1
1
1
1
1
1
1
1
1
1
1
1
1
1
1
1
1
1
1
1
1
1
1
1
1
1
1
1
1
1
1
1
1
1
1
1
1
1
1
1
1
1
1
1
1
1
1
1
1
1
1
1
1
1
1
1
1
1
1
1
1
1
1
1
1
1
1
1
1
1
1
1
1
1
1
1
1
1
1
1
1
1
1
1
1
1
1
1
1
1
1
1
1
1
1
1
1
1
1
1
1
1
1
1
1
1
1
1
1
1
1
1
1
1
1
1
1
1
1
1
1
1
1
1
1
1
1
1
1
1
1
1
1
1
1
1
1
1
1
1
1
1
1
1
1
1
1
1
1
1
1
1
1
1
1
1
1
1
1
1
1
1
1
1
1
1
1
1
1
1
1
1
1
1
1
1
1
1
1
1
1
1
1
1
1
1
1
1
1
1
1
1
1
1
1
1
1
1
1
1
1
1
1
1
1
1
1
1
1
1
1
1
1
1
1
1
1
1
1
1
1
1
1
1
1
1
1
1
1
1
1
1
1
1
1
1
1
1
1
1
1
1
1
1
1
1
1
1
1
1
1
1
1
1
1
1
1
1
1
1
1
1
1
1
1
1
1
1
1
1
1
1
1
1
1
1
1
1
1
1
1
1
1
1
1
1
1
1
1
1
1
1
1
1
1
1
1
1
1
1
1
1
1
1
1
1
1
1
1
1
1
1
1
1
1
1
1
1
1
1
1
1
1
1
1
1
1
1
1
1
1
1
1
1
1
1
1
1
1
1
1
1
1
1
1
1
1
1
1
1
1
1
1
1
1
1
1
1
1
1
1
1
1
1
1
1
1
1
1
1
1
1
1
1
1
1
1
1
1
1
1
1
1
1
1
1
1
1
1
1
1
1
1
1
1
1
1
1
1
1
1
1
1
1
1
1
1
1
1
1
1
1
1
1
1
1
1
1
1
1
1
1
1
1
1
1
1
1
1
1
1
1
1
1
1
1
1
1
1
1
1
1
1
1
1
1
1
1
1
1
1
1
1
1
1
1
1
1
1
1
1
1
1
1
1
1
1
1
1
1
1
1
1
1
1
1
1
1
1
1
1
1
1
1
1
1
1
1
1
1
1
1
1
1
1
1
1
1
1
1
1
1
1
1
1
1
1
1
1
1
1
1
1
1
1
1
1
1
1
1
1
1
1
1
1
1
1
1
1
1
1
1
1
1
1
1
1
1
1
1
1
1
1
1
1
1
1
1
1
1
1
1
1
1
1
1
1
1
1
1
1
1
1
1
1
1
1
1
1
1
1
1
1
1
1
1
1
1
1
1
1
1
1
1
1
1
1
1
1
1
1
1
1
1
1
1
1
1
1
1
1
1
1
1
1
1
1
1
1
1
1
1
1
1
1
1
1
1
1
1
1
1
1
1
1
1
1
1
1
1
1
1
1
1
1
1
1
1
1
1
1
1
1
1
1
1
1
1
1
1
1
1
1
1
1
1
1
1
1
1
1
1
1
1
1
1
1
1
1
1
1
1
1
1
1
1
1
1
1
1
1
1
1
1
1
1
1
1
1
1
1
1
1
1
1
1
1
1
1
1
1
1
1
1
1
1
1
1
1
1
1
1
1
1
1
1
1
1
1
1
1
1
1
1
1
1
1
1
1
1
1
1
1
1
1
1
1
1
1
1
1
1
1
1
1
1
1
1
1
1
1
1
1
1
1
1
1
1
1
1
1
1
1
1
1
1
1
1
1
1
1
1
1
1
1
1
1
1
1
1
1
1
1
1
1
1
1
1
1
1
1
1
1
1
1
1
1
1
1
1
1
1
1
1
1
1
1
1
1
1
1
1
1
1
1
1
1
1
1
1
1
1
1
1
1
1
1
1
1
1
1
1
1
1
1
1
1
1
1
1
1
1
1
1
1
1
1
1
1
1
1
1
1
1
1
1
1
1
1
1
1
1
1
1
1
1
1
1
1
1
1
1
1
1
1
1
1
1
1
1
1
1
1
1
1
1
1
1
1
1
1
1
1
1
1
1
1
1
1
1
1
1
1
1
1
1
1
1
1
1
1
1
1
1
1
1
1
1
1
1
1
1
1
1
1
1
1
1
1
1
1
1
1
1
1
1
1
1
1
1
1
1
1
1
1
1
1
1
1
1
1
1
1
1
1
1
1
1
1
1
1
1
1
1
1
1
1
1
1
1
1
1
1
1
1
1
1
1
1
1
1
1
1
1
1
1
1
1
1
1
1
1
1
1
1
1
1
1
1
1
1
1
1
1
1
1
1
1
1
1
1
1
1
1
1
1
1
1
1
1
1
1
1
1
1
1
1
1
1
1
1
1
1
1
1
1
1
1
1
1
1
1
1
1
1
1
1
1
1
1
1
1
1
1
1
1
1
1
1
1
1
1
1
1
1
1
1
1
1
1
1
1
1
1
1
1
1
1
1
1
1
1
1
1
1
1
1
1
1
1
1
1
1
1
1
1
1
1
1
1
1
1
1
1
1
1
1
1
1
1
1
1
1
1
1
1
1
1.07004
1.16101
1.26088
1.36058
1.44509
1.52458
1.63304
1.74495
1.80434
1.84626
1.91365
2.00537
2.03798
2.03738
2.04778
2.0492
2.04173
2.01617
1.97096
1.92549
1.88635
1.84406
1.81312
1.80376
1.80127
1.79237
1.78666
1.7884
1.79784
1.81426
1.82714
1.82507
1.8247
1.82851
1.83935
1.84785
1.84767
1.84533
1.84502
1.84556
1.84764
1.84818
1.84761
1.84628
1.84621
1.84935
1.85437
1.8581
1.85907
1.85851
1.85644
1.85245
1.8484
1.84681
1.84647
1.84724
1.85092
1.85672
1.86053
1.86261
1.86345
1.86323
1.86169
1.85941
1.8562
1.85288
1.84976
1.84809
1.84821
1.85031
1.85596
1.86419
1.87093
1.87457
1.8751
1.87357
1.86924
1.86182
1.8528
1.84621
1
1
0.999732
0.999477
1.02208
1.04654
1.05942
1.12942
1.25439
1.33238
1.38631
1.48088
1.58249
1.62875
1.66325
1.71382
1.76308
1.7793
1.78327
1.84032
1.88506
1.87764
1.87647
1.88049
1.88519
1.88372
1.87366
1.8593
1.85118
1.85021
1.8432
1.83317
1.82891
1.83085
1.83879
1.84736
1.84771
1.84808
1.84999
1.85313
1.85595
1.85641
1.85622
1.85522
1.85297
1.85256
1.85344
1.85528
1.85866
1.86118
1.86123
1.85983
1.85949
1.85944
1.85883
1.85807
1.85761
1.85709
1.8569
1.85755
1.85921
1.86194
1.86435
1.8646
1.8645
1.86396
1.86262
1.86057
1.85883
1.85854
1.85906
1.85937
1.86096
1.86411
1.86775
1.86951
1.8682
1.86439
1.86259
1.86004
1
1
1
0.999999
1
1
1
1
1
0.999995
0.999375
1.00623
1.04637
1.11614
1.19372
1.33865
1.4974
1.64757
1.78612
1.89697
1.96009
1.96558
1.96961
1.96826
1.9653
1.96078
1.9487
1.93027
1.90354
1.88232
1.86871
1.85636
1.85396
1.85537
1.86015
1.86451
1.8658
1.86622
1.86771
1.87079
1.8745
1.87615
1.87597
1.87492
1.8729
1.86991
1.86812
1.86742
1.86749
1.8696
1.87316
1.87621
1.87807
1.87787
1.87645
1.87505
1.87316
1.87044
1.86735
1.86446
1.86345
1.86415
1.86905
1.87584
1.87903
1.87933
1.87869
1.87756
1.87581
1.8732
1.8701
1.86615
1.86308
1.8617
1.86198
1.86587
1.87283
1.87755
1.87831
1.87636
1
1
1
1
1
1
1
1
1
1
1
1
1
1
1
0.99943
1.00543
1.06506
1.22251
1.39325
1.62001
1.75809
1.85582
1.9182
1.92554
1.93922
1.93108
1.91616
1.9224
1.93887
1.93976
1.92976
1.91938
1.91489
1.91002
1.90466
1.89261
1.88008
1.87714
1.87847
1.88475
1.89374
1.89752
1.89756
1.89722
1.8955
1.8932
1.89041
1.88699
1.88588
1.88656
1.8891
1.89323
1.89726
1.8987
1.89797
1.89507
1.89001
1.88296
1.87802
1.87588
1.87573
1.87736
1.88163
1.88829
1.89388
1.89592
1.8953
1.89238
1.88821
1.88147
1.87394
1.86918
1.86842
1.86909
1.87085
1.87672
1.88634
1.89182
1.88905
1
1
1
1
1
1
1
1
1
1
1
1
1
1
1
1
1
1
0.999992
0.999324
1.02282
1.13437
1.26531
1.46089
1.65042
1.7982
1.88561
1.91486
1.96225
1.98621
1.98389
1.98135
1.97335
1.96297
1.952
1.93477
1.91843
1.90283
1.89773
1.89859
1.90355
1.91059
1.91446
1.91548
1.9142
1.91249
1.91208
1.91144
1.90913
1.9066
1.90603
1.90568
1.90564
1.90734
1.91099
1.91217
1.91146
1.90816
1.90485
1.90153
1.89737
1.89437
1.89413
1.89451
1.89551
1.89794
1.90252
1.90584
1.90618
1.90334
1.89821
1.89427
1.88943
1.88483
1.8837
1.88472
1.88674
1.88955
1.89501
1.89592
1
1
1
1
1
1
1
1
1
1
1
1
1
1
1
1
1
1
1
1
1
1
0.999565
1.00287
1.05106
1.13786
1.33901
1.54024
1.68865
1.79849
1.84899
1.90806
1.93575
1.93678
1.93903
1.94616
1.94121
1.9302
1.92407
1.92333
1.92216
1.92212
1.92094
1.91917
1.91573
1.91465
1.9163
1.91808
1.91886
1.91922
1.91916
1.9183
1.9159
1.91399
1.91385
1.91606
1.92018
1.92253
1.92291
1.92279
1.92155
1.91756
1.9115
1.90907
1.90715
1.90593
1.90537
1.90621
1.91014
1.91409
1.91514
1.91394
1.91199
1.90954
1.90568
1.90226
1.90061
1.89976
1.89909
1.8978
1
1
1
1
1
1
1
1
1
1
1
1
1
1
1
1
1
1
1
1
1
1
1
1
1
1
0.999377
1.01229
1.05803
1.22349
1.42806
1.57572
1.72124
1.80381
1.89583
1.94111
1.94039
1.94257
1.94302
1.9407
1.93435
1.92224
1.91089
1.90536
1.90557
1.90934
1.91579
1.92284
1.92723
1.9281
1.92519
1.91856
1.91339
1.91185
1.91166
1.91291
1.91804
1.92575
1.93047
1.93183
1.9326
1.93308
1.93042
1.921
1.91375
1.91014
1.90863
1.90863
1.90998
1.9146
1.92197
1.92651
1.92737
1.92698
1.92543
1.92185
1.91606
1.91098
1.90719
1.90346
1
1
1
1
1
1
1
1
1
1
1
1
1
1
1
1
1
1
1
1
1
1
1
1
1
1
1
1
1
0.999592
1.00333
1.02404
1.1514
1.33432
1.48863
1.64401
1.7432
1.84912
1.90608
1.90989
1.90974
1.91152
1.90431
1.89815
1.89883
1.90565
1.91585
1.92463
1.92625
1.92545
1.92473
1.92237
1.91466
1.90882
1.90844
1.90972
1.91281
1.9163
1.92183
1.92835
1.93328
1.93524
1.93528
1.93386
1.92837
1.92097
1.9146
1.91234
1.9123
1.91271
1.91641
1.92467
1.93209
1.93418
1.9336
1.93119
1.92686
1.91918
1.91326
1.90924
1
1
1
1
1
1
1
1
1
1
1
1
1
1
1
1
1
1
1
1
1
1
1
1
1
1
1
1
1
1
1
1
0.999999
1
1.0085
1.0941
1.25498
1.42845
1.60305
1.7174
1.83786
1.88107
1.89181
1.89713
1.89738
1.90169
1.90795
1.91213
1.91488
1.9151
1.91474
1.91376
1.91367
1.91329
1.91264
1.91135
1.90805
1.90658
1.90765
1.91093
1.9156
1.92263
1.92889
1.93079
1.93205
1.93231
1.92931
1.92039
1.91308
1.91263
1.91402
1.91759
1.92207
1.92705
1.93071
1.93175
1.931
1.92828
1.92348
1.9165
1
1
1
1
1
1
1
1
1
1
1
1
1
1
1
1
1
1
1
1
1
1
1
1
1
1
1
1
1
1
1
1
1
1
1
1
0.99951
1.00562
1.07925
1.20721
1.37181
1.54759
1.68501
1.81622
1.85287
1.85771
1.8653
1.86499
1.87066
1.88113
1.89323
1.90443
1.90896
1.91198
1.91341
1.91358
1.91252
1.90545
1.89612
1.8952
1.89783
1.90139
1.90764
1.91925
1.92738
1.93021
1.93119
1.93009
1.9232
1.91452
1.91036
1.91006
1.9117
1.91474
1.91883
1.92334
1.92618
1.92648
1.92527
1.92203
1
1
1
1
1
1
1
1
1
1
1
1
1
1
1
1
1
1
1
1
1
1
1
1
1
1
1
1
1
1
1
1
1
1
1
1
1
1
1
0.99962
1.00266
1.05781
1.16852
1.35566
1.54039
1.69754
1.80476
1.83052
1.83594
1.84499
1.85848
1.87468
1.89382
1.90427
1.90676
1.90778
1.90777
1.9057
1.89995
1.89055
1.88616
1.88605
1.88817
1.89403
1.90596
1.9187
1.92361
1.92374
1.92224
1.91939
1.91517
1.91021
1.90681
1.90716
1.91026
1.91438
1.91739
1.92003
1.92176
1.91994
1
1
1
1
1
1
1
1
1
1
1
1
1
1
1
1
1
1
1
1
1
1
1
1
1
1
1
1
1
1
1
1
1
1
1
1
1
1
1
1
1
1
0.999656
1.00373
1.06453
1.17281
1.34963
1.52547
1.7059
1.78608
1.8062
1.82237
1.83661
1.85601
1.88059
1.89525
1.89649
1.89707
1.89772
1.89716
1.89222
1.88377
1.87889
1.87932
1.88548
1.89238
1.89921
1.90597
1.91114
1.91271
1.91377
1.91422
1.91247
1.90709
1.90473
1.90534
1.90843
1.91112
1.91244
1.91184
1
1
1
1
1
1
1
1
1
1
1
1
1
1
1
1
1
1
1
1
1
1
1
1
1
1
1
1
1
1
1
1
1
1
1
1
1
1
1
1
1
1
1
1
1
0.999704
1.00485
1.05103
1.17647
1.38601
1.57044
1.72764
1.78313
1.8033
1.82058
1.84104
1.85809
1.87543
1.88696
1.89123
1.89061
1.88711
1.88585
1.88458
1.87941
1.87774
1.87921
1.88133
1.88625
1.89692
1.90461
1.90589
1.90564
1.90663
1.90712
1.90629
1.90393
1.90251
1.90277
1.90282
1
1
1
1
1
1
1
1
1
1
1
1
1
1
1
1
1
1
1
1
1
1
1
1
1
1
1
1
1
1
1
1
1
1
1
1
1
1
1
1
1
1
1
1
1
1
1
0.999979
0.999851
1.01447
1.07568
1.22219
1.44661
1.64058
1.74414
1.78795
1.80335
1.81756
1.8408
1.87114
1.88259
1.88287
1.88407
1.88958
1.89096
1.88511
1.87182
1.86638
1.86802
1.87347
1.88112
1.89036
1.89679
1.89994
1.90155
1.90254
1.90328
1.90291
1.90092
1.89656
1
1
1
1
1
1
1
1
1
1
1
1
1
1
1
1
1
1
1
1
1
1
1
1
1
1
1
1
1
1
1
1
1
1
1
1
1
1
1
1
1
1
1
1
1
1
1
1
0.999999
1
0.999893
1.00076
1.03222
1.12328
1.29019
1.50829
1.70326
1.75845
1.78608
1.81801
1.84974
1.86559
1.87789
1.88679
1.88938
1.88725
1.8805
1.87089
1.86435
1.86468
1.87019
1.87555
1.87948
1.88366
1.88951
1.89362
1.89557
1.89569
1.89552
1.89571
1
1
1
1
1
1
1
1
1
1
1
1
1
1
1
1
1
1
1
1
1
1
1
1
1
1
1
1
1
1
1
1
1
1
1
1
1
1
1
1
1
1
1
1
1
1
1
1
1
1
0.999999
0.999996
1.00002
0.999964
1.00502
1.0411
1.20523
1.45469
1.62545
1.73219
1.79534
1.81144
1.82666
1.85547
1.87641
1.87842
1.87672
1.8757
1.8776
1.87906
1.87746
1.87246
1.87022
1.87113
1.87268
1.87332
1.87601
1.88052
1.88584
1.88936
1
1
1
1
1
1
1
1
1
1
1
1
1
1
1
1
1
1
1
1
1
1
1
1
1
1
1
1
1
1
1
1
1
1
1
1
1
1
1
1
1
1
1
1
1
1
1
1
1
1
1
1
1
0.999999
1
0.999941
1.00158
1.03871
1.13038
1.31752
1.58699
1.75412
1.78214
1.8041
1.83238
1.84722
1.85411
1.86709
1.88069
1.88582
1.88461
1.88074
1.87639
1.87239
1.86875
1.86707
1.86693
1.86836
1.87008
1.87465
1
1
1
1
1
1
1
1
1
1
1
1
1
1
1
1
1
1
1
1
1
1
1
1
1
1
1
1
1
1
1
1
1
1
1
1
1
1
1
1
1
1
1
1
1
1
1
1
1
1
1
1
1
1
1
0.999998
1
0.999981
1.00027
1.01074
1.08527
1.33308
1.56173
1.67941
1.77551
1.80403
1.81611
1.83221
1.85532
1.87308
1.87571
1.87465
1.87521
1.87801
1.88245
1.88263
1.87508
1.86569
1.86159
1.86201
1
1
1
1
1
1
1
1
1
1
1
1
1
1
1
1
1
1
1
1
1
1
1
1
1
1
1
1
1
1
1
1
1
1
1
1
1
1
1
1
1
1
1
1
1
1
1
1
1
1
1
1
1
1
1
1
1
0.999999
0.999999
0.999983
1.00008
1.01249
1.08664
1.21262
1.44993
1.74555
1.83014
1.82664
1.83906
1.84997
1.84942
1.8464
1.8532
1.87218
1.88624
1.88669
1.88426
1.87868
1.86937
1.85761
1
1
1
1
1
1
1
1
1
1
1
1
1
1
1
1
1
1
1
1
1
1
1
1
1
1
1
1
1
1
1
1
1
1
1
1
1
1
1
1
1
1
1
1
1
1
1
1
1
1
1
1
1
1
1
1
1
1
1
0.999999
0.999999
1
1.00009
1.00345
1.04426
1.28907
1.57452
1.74293
1.81928
1.84706
1.84718
1.83904
1.83763
1.8464
1.85753
1.87297
1.87989
1.87857
1.87302
1.86604
1
1
1
1
1
1
1
1
1
1
1
1
1
1
1
1
1
1
1
1
1
1
1
1
1
1
1
1
1
1
1
1
1
1
1
1
1
1
1
1
1
1
1
1
1
1
1
1
1
1
1
1
1
1
1
1
1
1
1
1
1
1
1
0.999992
1.00005
1.00795
1.13207
1.31357
1.51178
1.71021
1.84086
1.86793
1.86658
1.8466
1.84106
1.8488
1.86334
1.86771
1.86982
1.87159
1
1
1
1
1
1
1
1
1
1
1
1
1
1
1
1
1
1
1
1
1
1
1
1
1
1
1
1
1
1
1
1
1
1
1
1
1
1
1
1
1
1
1
1
1
1
1
1
1
1
1
1
1
1
1
1
1
1
1
1
1
1
1
0.999999
0.999999
0.999987
1.00087
1.01002
1.08217
1.26697
1.57708
1.81726
1.86473
1.85697
1.85893
1.85521
1.85424
1.85532
1.85785
1.86219
1
1
1
1
1
1
1
1
1
1
1
1
1
1
1
1
1
1
1
1
1
1
1
1
1
1
1
1
1
1
1
1
1
1
1
1
1
1
1
1
1
1
1
1
1
1
1
1
1
1
1
1
1
1
1
1
1
1
1
1
1
1
1
1
1
0.999999
0.999999
0.99999
1.00025
1.01089
1.15471
1.43738
1.65683
1.80564
1.84993
1.86464
1.87127
1.87094
1.86536
1.86307
1
1
1
1
1
1
1
1
1
1
1
1
1
1
1
1
1
1
1
1
1
1
1
1
1
1
1
1
1
1
1
1
1
1
1
1
1
1
1
1
1
1
1
1
1
1
1
1
1
1
1
1
1
1
1
1
1
1
1
1
1
1
1
1
1
1
1
0.999999
0.999999
1
1.00203
1.04244
1.24569
1.49175
1.68206
1.81489
1.87491
1.8865
1.88867
1.88549
1
1
1
1
1
1
1
1
1
1
1
1
1
1
1
1
1
1
1
1
1
1
1
1
1
1
1
1
1
1
1
1
1
1
1
1
1
1
1
1
1
1
1
1
1
1
1
1
1
1
1
1
1
1
1
1
1
1
1
1
1
1
1
1
1
1
1
1
1
1
0.999996
1.00016
1.00652
1.07328
1.32707
1.59867
1.75504
1.82715
1.87996
1.88455
1
1
1
1
1
1
1
1
1
1
1
1
1
1
1
1
1
1
1
1
1
1
1
1
1
1
1
1
1
1
1
1
1
1
1
1
1
1
1
1
1
1
1
1
1
1
1
1
1
1
1
1
1
1
1
1
1
1
1
1
1
1
1
1
1
1
1
1
1
1
1
1
0.999993
1.0006
1.01794
1.15467
1.47336
1.70623
1.80022
1.86043
1
1
1
1
1
1
1
1
1
1
1
1
1
1
1
1
1
1
1
1
1
1
1
1
1
1
1
1
1
1
1
1
1
1
1
1
1
1
1
1
1
1
1
1
1
1
1
1
1
1
1
1
1
1
1
1
1
1
1
1
1
1
1
1
1
1
1
1
1
1
1
1
1
0.999998
1.00002
1.00348
1.06555
1.35894
1.61975
1.80399
1
1
1
1
1
1
1
1
1
1
1
1
1
1
1
1
1
1
1
1
1
1
1
1
1
1
1
1
1
1
1
1
1
1
1
1
1
1
1
1
1
1
1
1
1
1
1
1
1
1
1
1
1
1
1
1
1
1
1
1
1
1
1
1
1
1
1
1
1
1
1
1
1
1
1
0.999998
1.00075
1.03065
1.18503
1.65081
1
1
1
1
1
1
1
1
1
1
1
1
1
1
1
1
1
1
1
1
1
1
1
1
1
1
1
1
1
1
1
1
1
1
1
1
1
1
1
1
1
1
1
1
1
1
1
1
1
1
1
1
1
1
1
1
1
1
1
1
1
1
1
1
1
1
1
1
1
1
1
1
1
1
1
1
0.999998
1.00017
1.00552
1.30981
1
1
1
1
1
1
1
1
1
1
1
1
1
1
1
1
1
1
1
1
1
1
1
1
1
1
1
1
1
1
1
1
1
1
1
1
1
1
1
1
1
1
1
1
1
1
1
1
1
1
1
1
1
1
1
1
1
1
1
1
1
1
1
1
1
1
1
1
1
1
1
1
1
1
1
1
1
0.999999
1.00003
1.04058
1
1
1
1
1
1
1
1
1
1
1
1
1
1
1
1
1
1
1
1
1
1
1
1
1
1
1
1
1
1
1
1
1
1
1
1
1
1
1
1
1
1
1
1
1
1
1
1
1
1
1
1
1
1
1
1
1
1
1
1
1
1
1
1
1
1
1
1
1
1
1
1
1
1
1
1
1
1
1
1.00136
1
1
1
1
1
1
1
1
1
1
1
1
1
1
1
1
1
1
1
1
1
1
1
1
1
1
1
1
1
1
1
1
1
1
1
1
1
1
1
1
1
1
1
1
1
1
1
1
1
1
1
1
1
1
1
1
1
1
1
1
1
1
1
1
1
1
1
1
1
1
1
1
1
1
1
1
1
1
1
1.00001
1
1
1
1
1
1
1
1
1
1
1
1
1
1
1
1
1
1
1
1
1
1
1
1
1
1
1
1
1
1
1
1
1
1
1
1
1
1
1
1
1
1
1
1
1
1
1
1
1
1
1
1
1
1
1
1
1
1
1
1
1
1
1
1
1
1
1
1
1
1
1
1
1
1
1
1
1
1
1
1
1
1
1
1
1
1
1
1
1
1
1
1
1
1
1
1
1
1
1
1
1
1
1
1
1
1
1
1
1
1
1
1
1
1
1
1
1
1
1
1
1
1
1
1
1
1
1
1
1
1
1
1
1
1
1
1
1
1
1
1
1
1
1
1
1
1
1
1
1
1
1
1
1
1
1
1
1
1
1
1
1
1
1
1
1
1
1
1
1
1
1
1
1
1
1
1
1
1
1
1
1
1
1
1
1
1
1
1
1
1
1
1
1
1
1
1
1
1
1
1
1
1
1
1
1
1
1
1
1
1
1
1
1
1
1
1
1
1
1
1
1
1
1
1
1
1
1
1
1
1
1
1
1
1
1
1
1
1
1
1
1
1
1
1
1
1
1
1
1
1
1
1
1
1
1
1
1
1
1
1
1
1
1
1
1
1
1
1
1
1
1
1
1
1
1
1
1
1
1
1
1
1
1
1
1
1
1
1
1
1
1
1
1
1
1
1
1
1
1
1
1
1
1
1
1
1
1
1
1
1
1
1
1
1
1
1
1
1
1
1
1
1
1
1
1
1
1
1
1
1
1
1
1
1
1
1
1
1
1
1
1
1
1
1
1
1
1
1
1
1
1
1
1
1
1
1
1
1
1
1
1
1
1
1
1
1
1
1
1
1
1
1
1
1
1
1
1
1
1
1
1
1
1
1
1
1
1
1
1
1
1
1
1
1
1
1
1
1
1
1
1
1
1
1
1
1
1
1
1
1
1
1
1
1
1
1
1
1
1
1
1
1
1
1
1
1
1
1
1
1
1
1
1
1
1
1
1
1
1
1
1
1
1
1
1
1
1
1
1
1
1
1
1
1
1
1
1
1
1
1
1
1
1
1
1
1
1
1
1
1
1
1
1
1
1
1
1
1
1
1
1
1
1
1
1
1
1
1
1
1
1
1
1
1
1
1
1
1
1
1
1
1
1
1
1
1
1
1
1
1
1
1
1
1
1
1
1
1
1
1
1
1
1
1
1
1
1
1
1
1
1
1
1
1
1
1
1
1
1
1
1
1
1
1
1
1
1
1
1
1
1
1
1
1
1
1
1
1
1
1
1
1
1
1
1
1
1
1
1
1
1
1
1
1
1
1
1
1
1
1
1
1
1
1
1
1
1
1
1
1
1
1
1
1
1
1
1
1
1
1
1
1
1
1
1
1
1
1
1
1
1
1
1
1
1
1
1
1
1
1
1
1
1
1
1
1
1
1
1
1
1
1
1
1
1
1
1
1
1
1
)
;

boundaryField
{
    inlet
    {
        type            fixedValue;
        value           uniform 1;
    }
    outlet
    {
        type            zeroGradient;
    }
    bottom
    {
        type            symmetryPlane;
    }
    top
    {
        type            symmetryPlane;
    }
    obstacle
    {
        type            zeroGradient;
    }
    defaultFaces
    {
        type            empty;
    }
}


// ************************************************************************* //
