/*--------------------------------*- C++ -*----------------------------------*\
| =========                 |                                                 |
| \\      /  F ield         | OpenFOAM: The Open Source CFD Toolbox           |
|  \\    /   O peration     | Version:  2206                                  |
|   \\  /    A nd           | Website:  www.openfoam.com                      |
|    \\/     M anipulation  |                                                 |
\*---------------------------------------------------------------------------*/
FoamFile
{
    version     2.0;
    format      ascii;
    arch        "LSB;label=32;scalar=64";
    class       volScalarField;
    location    "0.06";
    object      T;
}
// * * * * * * * * * * * * * * * * * * * * * * * * * * * * * * * * * * * * * //

dimensions      [0 0 0 1 0 0 0];

internalField   nonuniform List<scalar> 
4800
(
1
1
1
1
1
1
1
1
1
1
1
1
1
1
1
1
1
1
1
1
1
1
1
1
1
1
1
1
1
1
1
1
1
1
1
1
1
1
1
1
1
1
1
1
1
1
1
1
1
1
1
1
1
1
1
1
1
1
1
1
1
1
1
1
1
1
1
1
1
1
1
1
1
1
1
1
1
1
1
1
1
1
1
1
1
1
1
1
1
1
1
1
1
1
1
1
1
1
1
1
1
1
1
1
1
1
1
1
1
1
1
1
1
1
1
1
1
1
1
1
1
1
1
1
1
1
1
1
1
1
1
1
1
1
1
1
1
1
1
1
1
1
1
1
1
1
1
1
1
1
1
1
1
1
1
1
1
1
1
1
1
1
1
1
1
1
1
1
1
1
1
1
1
1
1
1
1
1
1
1
1
1
1
1
1
1
1
1
1
1
1
1
1
1
1
1
1
1
1
1
1
1
1
1
1
1
1
1
1
1
1
1
1
1
1
1
1
1
1
1
1
1
1
1
1
1
1
1
1
1
1
1
1
1
1
1
1
1
1
1
1
1
1
1
1
1
1
1
1
1
1
1
1
1
1
1
1
1
1
1
1
1
1
1
1
1
1
1
1
1
1
1
1
1
1
1
1
1
1
1
1
1
1
1
1
1
1
1
1
1
1
1
1
1
1
1
1
1
1
1
1
1
1
1
1
1
1
1
1
1
1
1
1
1
1
1
1
1
1
1
1
1
1
1
1
1
1
1
1
1
1
1
1
1
1
1
1
1
1
1
1
1
1
1
1
1
1
1
1
1
1
1
1
1
1
1
1
1
1
1
1
1
1
1
1
1
1
1
1
1
1
1
1
1
1
1
1
1
1
1
1
1
1
1
1
1
1
1
1
1
1
1
1
1
1
1
1
1
1
1
1
1
1
1
1
1
1
1
1
1
1
1
1
1
1
1
1
1
1
1
1
1
1
1
1
1
1
1
1
1
1
1
1
1
1
1
1
1
1
1
1
1
1
1
1
1
1
1
1
1
1
1
1
1
1
1
1
1
1
1
1
1
1
1
1
1
1
1
1
1
1
1
1
1
1
1
1
1
1
1
1
1
1
1
1
1
1
1
1
1
1
1
1
1
1
1
1
1
1
1
1
1
1
1
1
1
1
1
1
1
1
1
1
1
1
1
1
1
1
1
1
1
1
1
1
1
1
1
1
1
1
1
1
1
1
1
1
1
1
1
1
1
1
1
1
1
1
1
1
1
1
1
1
1
1
1
1
1
1
1
1
1
1
1
1
1
1
1
1
1
1
1
1
1
1
1
1
1
1
1
1
1
1
1
1
1
1
1
1
1
1
1
1
1
1
1
1
1
1
1
1
1
1
1
1
1
1
1
1
1
1
1
1
1
1
1
1
1
1
1
1
1
1
1
1
1
1
1
1
1
1
1
1
1
1
1
1
1
1
1
1
1
1
1
1
1
1
1
1
1
1
1
1
1
1
1
1
1
1
1
1
1
1
1
1
1
1
1
1
1
1
1
1
1
1
1
1
1
1
1
1
1
1
1
1
1
1
1
1
1
1
1
1
1
1
1
1
1
1
1
1
1
1
1
1
1
1
1
1
1
1
1
1
1
1
1
1
1
1
1
1
1
1
1
1
1
1
1
1
1
1
1
1
1
1
1
1
1
1
1
1
1
1
1
1
1
1
1
1
1
1
1
1
1
1
1
1
1
1
1
1
1
1
1
1
1
1
1
1
1
1
1
1
1
1
1
1
1
1
1
1
1
1
1
1
1
1
1
1
1
1
1
1
1
1
1
1
1
1
1
1
1
1
1
1
1
1
1
1
1
1
1
1
1
1
1
1
1
1
1
1
1
1
1
1
1
1
1
1
1
1
1
1
1
1
1
1
1
1
1
1
1
1
1
1
1
1
1
1
1
1
1
1
1
1
1
1
1
1
1
1
1
1
1
1
1
1
1
1
1
1
1
1
1
1
1
1
1
1
1
1
1
1
1
1
1
1
1
1
1
1
1
1
1
1
1
1
1
1
1
1
1
1
1
1
1
1
1
1
1
1
1
1
1
1
1
1
1
1
1
1
1
1
1
1
1
1
1
1
1
1
1
1
1
1
1
1
1
1
1
1
1
1
1
1
1
1
1
1
1
1
1
1
1
1
1
1
1
1
1
1
1
1
1
1
1
1
1
1
1
1
1
1
1
1
1
1
1
1
1
1
1
1
1
1
1
1
1
1
1
1
1
1
1
1
1
1
1
1
1
1
1
1
1
1
1
1
1
1
1
1
1
1
1
1
1
1
1
1
1
1
1
1
1
1
1
1
1
1
1
1
1
1
1
1
1
1
1
1
1
1
1
1
1
1
1
1
1
1
1
1
1
1
1
1
1
1
1
1
1
1
1
1
1
1
1
1
1
1
1
1
1
1
1
1
1
1
1
1
1
1
1
1
1
1
1
1
1
1
1
1
1
1
1
1
1
1
1
1
1
1
1
1
1
1
1
1
1
1
1
1
1
1
1
1
1
1
1
1
1
1
1
1
1
1
1
1
1
1
1
1
1
1
1
1
1
1
1
1
1
1
1
1
1
1
1
1
1
1
1
1
1
1
1
1
1
1
1
1
1
1
1
1
1
1
1
1
1
1
1
1
1
1
1
1
1
1
1
1
1
1
1
1
1
1
1
1
1
1
1
1
1
1
1
1
1
1
1
1
1
1
1
1
1
1
1
1
1
1
1
1
1
1
1
1
1
1
1
1
1
1
1
1
1
1
1
1
1
1
1
1
1
1
1
1
1
1
1
1
1
1
1
1
1
1
1
1
1
1
1
1
1
1
1
1
1
1
1
1
1
1
1
1
1
1
1
1
1
1
1
1
1
1
1
1
1
1
1
1
1
1
1
1
1
1
1
1
1
1
1
1
1
1
1
1
1
1
1
1
1
1
1
1
1
1
1
1
1
1
1
1
1
1
1
1
1
1
1
1
1
1
1
1
1
1
1
1
1
1
1
1
1
1
1
1
1
1
1
1
1
1
1
1
1
1
1
1
1
1
1
1
1
1
1
1
1
1
1
1
1
1
1
1
1
1
1
1
1
1
1
1
1
1
1
1
1
1
1
1
1
1
1
1
1
1
1
1
1
1
1
1
1
1
1
1
1
1
1
1
1
1
1
1
1
1
1
1
1
1
1
1
1
1
1
1
1
1
1
1
1
1
1
1
1
1
1
1
1
1
1
1
1
1
1
1
1
1
1
1
1
1
1
1
1
1
1
1
1
1
1
1
1
1
1
1
1
1
1
1
1
1
1
1
1
1
1
1
1
1
1
1
1
1
1
1
1
1
1
1
1
1
1
1
1
1
1
1
1
1
1
1
1
1
1
1
1
1
1
1
1
1
1
1
1
1
1
1
1
1
1
1
1
1
1
1
1
1
1
1
1
1
1
1
1
1
1
1
1
1
1
1
1
1
1
1
1
1
1
1
1
1
1
1
1
1
1
1
1
1
1
1
1
1
1
1
1
1
1
1
1
1
1
1
1
1
1
1
1
1
1
1
1
1
1
1
1
1
1
1
1
1
1
1
1
1
1
1
1
1
1
1
1
1
1
1
1
1
1
1
1
1.07158
1.16781
1.26073
1.34739
1.44523
1.5332
1.59306
1.64324
1.70729
1.76184
1.76376
1.75818
1.75587
1.74602
1.71633
1.67709
1.63129
1.59494
1.58356
1.57971
1.57453
1.57514
1.57729
1.58449
1.59423
1.59868
1.59757
1.59698
1.59859
1.60255
1.60703
1.61072
1.61193
1.61237
1.61371
1.61505
1.61505
1.61499
1.61492
1.61447
1.61352
1.61203
1.61038
1.60893
1.60737
1.60519
1.60207
1.59889
1.59677
1.59543
1.59399
1.59197
1.58997
1.58936
1.5896
1.58977
1.5897
1.58935
1.58848
1.58687
1.58498
1.58468
1.58559
1.58596
1.5852
1.5849
1.58509
1.5865
1.58734
1.58775
1.5883
1.58869
1.58899
1.58961
1.59018
1.5903
1.59027
1.59023
1.59026
1.59226
0.999919
0.999839
1.00961
1.03051
1.05556
1.11599
1.19741
1.26409
1.32033
1.39485
1.46019
1.49301
1.53897
1.566
1.58351
1.61905
1.62871
1.63905
1.64021
1.63709
1.62759
1.62165
1.61606
1.61312
1.60672
1.59948
1.59935
1.60032
1.60362
1.60836
1.61178
1.61242
1.61226
1.61215
1.61318
1.61515
1.61619
1.61727
1.61831
1.61822
1.61803
1.6178
1.61674
1.61444
1.61154
1.60781
1.60296
1.59863
1.59606
1.59462
1.59363
1.59257
1.59162
1.59137
1.59153
1.59159
1.59143
1.59081
1.58954
1.58731
1.58478
1.58428
1.58473
1.5854
1.58508
1.58501
1.58545
1.587
1.58805
1.58875
1.58949
1.59008
1.59053
1.59096
1.59108
1.59109
1.59116
1.59124
1.59146
1.59382
1
1
1
1
1
0.999976
1.00003
1.00312
1.01332
1.04194
1.1191
1.21249
1.32011
1.45207
1.58366
1.65794
1.67891
1.69502
1.69553
1.69273
1.68425
1.66923
1.65534
1.63108
1.61854
1.61435
1.61533
1.61704
1.61984
1.625
1.6258
1.62531
1.62385
1.6222
1.62166
1.62242
1.6232
1.62428
1.62706
1.62885
1.62922
1.62912
1.62784
1.62472
1.62069
1.61606
1.61121
1.606
1.60161
1.59961
1.59878
1.59821
1.5978
1.59788
1.59791
1.59775
1.59731
1.59642
1.5948
1.59191
1.58897
1.58815
1.58837
1.58904
1.58889
1.5889
1.5896
1.59105
1.59188
1.5929
1.59396
1.5948
1.59526
1.59528
1.59507
1.59476
1.59468
1.59472
1.59498
1.59749
1
1
1
1
1
1
1
1
1
1
0.999828
1.00063
1.00796
1.06357
1.18679
1.34977
1.48619
1.57681
1.65555
1.66658
1.67179
1.66538
1.65663
1.65815
1.66015
1.65975
1.65725
1.65175
1.64956
1.64511
1.64094
1.63625
1.63329
1.63311
1.63324
1.63452
1.63553
1.63608
1.638
1.64038
1.64074
1.64071
1.63985
1.63714
1.63264
1.62782
1.62346
1.61764
1.61222
1.60979
1.60833
1.60723
1.60715
1.60732
1.60727
1.60689
1.60623
1.6049
1.60226
1.59851
1.59496
1.59394
1.59414
1.59494
1.59492
1.595
1.59607
1.59757
1.59837
1.59983
1.60149
1.60245
1.60261
1.60256
1.60232
1.60189
1.60148
1.60129
1.60139
1.60393
1
1
1
1
1
1
1
1
1
1
1
1
1
0.999998
0.999989
1.00676
1.06444
1.16134
1.31967
1.47115
1.57912
1.66503
1.67825
1.69435
1.69399
1.69067
1.68674
1.67756
1.66161
1.64992
1.64965
1.64954
1.64932
1.64848
1.64641
1.64584
1.64583
1.64534
1.64612
1.64806
1.64916
1.64946
1.64903
1.64705
1.64307
1.63815
1.63334
1.62741
1.62313
1.62113
1.61949
1.61804
1.61739
1.61687
1.61631
1.61559
1.61437
1.61253
1.61004
1.60635
1.60164
1.59917
1.59938
1.60025
1.59993
1.60003
1.60212
1.60376
1.60515
1.60763
1.61015
1.6112
1.61123
1.61113
1.6108
1.61016
1.60948
1.60926
1.60935
1.61164
1
1
1
1
1
1
1
1
1
1
1
1
1
1
1
1
0.999994
0.999982
1.00627
1.06131
1.15322
1.31601
1.45633
1.56723
1.63389
1.64454
1.65752
1.65099
1.65166
1.65658
1.66341
1.66614
1.66462
1.66288
1.65938
1.65616
1.65124
1.64763
1.64733
1.64826
1.65095
1.65296
1.65311
1.65164
1.64771
1.64206
1.63648
1.63197
1.62954
1.62835
1.62734
1.62615
1.62487
1.62356
1.62205
1.6202
1.6179
1.61581
1.61344
1.60946
1.60426
1.60188
1.60173
1.60241
1.60281
1.6033
1.60556
1.60733
1.60978
1.61332
1.61637
1.6176
1.61774
1.61768
1.61738
1.61667
1.61605
1.61597
1.61614
1.61855
1
1
1
1
1
1
1
1
1
1
1
1
1
1
1
1
1
1
1
0.999978
1.00009
1.0067
1.05596
1.14641
1.29821
1.43789
1.55418
1.61494
1.64229
1.66673
1.66801
1.66719
1.66633
1.66413
1.66005
1.65342
1.64937
1.64865
1.64946
1.65043
1.65099
1.65128
1.65092
1.64987
1.64648
1.64038
1.63449
1.63205
1.63136
1.63134
1.6311
1.62968
1.62776
1.62593
1.62339
1.62034
1.61707
1.61402
1.6116
1.60841
1.60446
1.60251
1.60272
1.60281
1.60268
1.60394
1.60599
1.60817
1.61163
1.61566
1.61885
1.62039
1.62086
1.62089
1.62074
1.62022
1.61973
1.61969
1.61994
1.62294
1
1
1
1
1
1
1
1
1
1
1
1
1
1
1
1
1
1
1
1
1
1
0.999977
1.00018
1.00858
1.05516
1.14368
1.30953
1.44411
1.56322
1.59891
1.6183
1.62885
1.63496
1.6429
1.65093
1.65309
1.65375
1.65451
1.6539
1.65268
1.65041
1.64812
1.64532
1.64084
1.63437
1.6315
1.63086
1.63039
1.63038
1.63005
1.62829
1.62642
1.62416
1.62068
1.61684
1.61273
1.6092
1.60824
1.60744
1.60503
1.60242
1.60174
1.60136
1.60164
1.60249
1.60385
1.60667
1.61079
1.61517
1.61867
1.62061
1.62146
1.62166
1.6216
1.62128
1.62086
1.62084
1.62129
1.62518
1
1
1
1
1
1
1
1
1
1
1
1
1
1
1
1
1
1
1
1
1
1
1
0.999999
1
0.999985
1.00039
1.01289
1.06121
1.16885
1.32886
1.45085
1.5432
1.58605
1.62618
1.64356
1.64685
1.64986
1.64964
1.64847
1.64357
1.64239
1.64231
1.64064
1.63705
1.63271
1.62998
1.62857
1.62695
1.62528
1.62366
1.62207
1.6207
1.61934
1.61768
1.61454
1.61049
1.60691
1.60472
1.60309
1.60094
1.59882
1.59703
1.59692
1.59793
1.59991
1.6018
1.60509
1.60982
1.61457
1.61823
1.62034
1.62133
1.62165
1.62167
1.6216
1.62139
1.62138
1.62188
1.626
1
1
1
1
1
1
1
1
1
1
1
1
1
1
1
1
1
1
1
1
1
1
1
1
1
1
0.999999
1.00001
1.00001
1.00107
1.02001
1.06919
1.18815
1.34516
1.47858
1.55891
1.58049
1.60918
1.6207
1.62491
1.63134
1.63677
1.64117
1.64034
1.63692
1.63142
1.62794
1.62497
1.62001
1.61601
1.61354
1.61176
1.61102
1.61116
1.61075
1.60895
1.60587
1.60199
1.59832
1.59618
1.59433
1.59231
1.59157
1.59174
1.59333
1.59547
1.59801
1.60177
1.60673
1.61259
1.61653
1.61865
1.61987
1.62034
1.6205
1.62053
1.62054
1.62061
1.62114
1.62529
1
1
1
1
1
1
1
1
1
1
1
1
1
1
1
1
1
1
1
1
1
1
1
1
1
1
1
1
1
1
0.999998
1.00007
1.00251
1.02862
1.09943
1.24965
1.38135
1.4969
1.56631
1.59843
1.62309
1.63255
1.63375
1.63183
1.6287
1.62455
1.62135
1.6178
1.6149
1.61217
1.60907
1.60604
1.60345
1.60046
1.5986
1.59781
1.59662
1.5937
1.58996
1.58788
1.58711
1.58695
1.58704
1.5872
1.58849
1.59031
1.59315
1.59708
1.60121
1.60664
1.61127
1.61385
1.6155
1.61639
1.61695
1.61734
1.61757
1.61794
1.61885
1.62357
1
1
1
1
1
1
1
1
1
1
1
1
1
1
1
1
1
1
1
1
1
1
1
1
1
1
1
1
1
1
1
1
1
1
1.00038
1.00777
1.05095
1.13467
1.29646
1.43754
1.54463
1.57533
1.5975
1.60139
1.60174
1.60516
1.60912
1.6092
1.60855
1.60855
1.60624
1.60061
1.59313
1.58734
1.5851
1.58555
1.58593
1.58481
1.58258
1.58179
1.58161
1.58168
1.58225
1.5831
1.58383
1.58539
1.5881
1.59115
1.59458
1.59952
1.6041
1.60753
1.60986
1.6112
1.61205
1.61264
1.6132
1.61415
1.61572
1.62119
1
1
1
1
1
1
1
1
1
1
1
1
1
1
1
1
1
1
1
1
1
1
1
1
1
1
1
1
1
1
1
1
1
1
1
0.999994
1.00008
1.00107
1.01977
1.08725
1.21396
1.36233
1.50002
1.57354
1.58637
1.60042
1.5985
1.59639
1.59625
1.59733
1.59581
1.58988
1.58168
1.57643
1.57579
1.57683
1.57861
1.57919
1.57914
1.57816
1.57686
1.57696
1.57792
1.57903
1.57958
1.5806
1.58261
1.58527
1.5893
1.59416
1.59805
1.602
1.6053
1.60684
1.60763
1.60825
1.60909
1.61046
1.6126
1.61836
1
1
1
1
1
1
1
1
1
1
1
1
1
1
1
1
1
1
1
1
1
1
1
1
1
1
1
1
1
1
1
1
1
1
1
1
1
0.999998
1.00001
1.00042
1.00603
1.04951
1.14953
1.31522
1.44681
1.54663
1.56083
1.56321
1.56421
1.57132
1.57457
1.57552
1.57728
1.57767
1.57763
1.57552
1.57451
1.57497
1.57486
1.57383
1.57227
1.57187
1.57287
1.57499
1.57636
1.57716
1.57852
1.58038
1.58381
1.5889
1.59284
1.59735
1.60087
1.60241
1.60307
1.60358
1.60447
1.60611
1.60873
1.61503
1
1
1
1
1
1
1
1
1
1
1
1
1
1
1
1
1
1
1
1
1
1
1
1
1
1
1
1
1
1
1
1
1
1
1
1
1
1
1
1
0.999994
1.00014
1.00211
1.0282
1.11155
1.23977
1.37345
1.48266
1.51764
1.54145
1.55862
1.56577
1.57219
1.57374
1.57327
1.56979
1.56564
1.56638
1.56998
1.57019
1.56964
1.56943
1.57023
1.57233
1.57544
1.57784
1.57788
1.57743
1.57889
1.58315
1.58783
1.59212
1.59622
1.59832
1.59931
1.59965
1.60019
1.60181
1.60487
1.61219
1
1
1
1
1
1
1
1
1
1
1
1
1
1
1
1
1
1
1
1
1
1
1
1
1
1
1
1
1
1
1
1
1
1
1
1
1
1
1
1
1
1
0.999997
1.00004
1.00115
1.01001
1.06406
1.15901
1.29036
1.39583
1.46316
1.50346
1.53353
1.55683
1.5584
1.55271
1.55247
1.55672
1.5655
1.57296
1.57448
1.57379
1.57203
1.57217
1.57412
1.57632
1.57577
1.57494
1.57531
1.57833
1.58345
1.58726
1.59127
1.59405
1.59594
1.59679
1.5976
1.59921
1.60238
1.61011
1
1
1
1
1
1
1
1
1
1
1
1
1
1
1
1
1
1
1
1
1
1
1
1
1
1
1
1
1
1
1
1
1
1
1
1
1
1
1
1
1
1
1
1
1
0.999998
1.00035
1.00313
1.02555
1.07803
1.18578
1.3046
1.39016
1.45922
1.52198
1.55272
1.55851
1.56076
1.56673
1.57462
1.57602
1.57484
1.5693
1.56558
1.5672
1.5726
1.57396
1.57351
1.57344
1.57472
1.57912
1.58464
1.58787
1.59025
1.59246
1.59497
1.59786
1.59969
1.60233
1.60903
1
1
1
1
1
1
1
1
1
1
1
1
1
1
1
1
1
1
1
1
1
1
1
1
1
1
1
1
1
1
1
1
1
1
1
1
1
1
1
1
1
1
1
1
1
1
1
0.999997
1.00005
1.00062
1.00628
1.02817
1.09251
1.1939
1.29689
1.40214
1.49573
1.51801
1.53093
1.54853
1.56536
1.56853
1.5667
1.56157
1.56265
1.56815
1.57456
1.57707
1.57695
1.57545
1.57674
1.58154
1.58689
1.5889
1.59014
1.59235
1.59588
1.59944
1.60319
1.6089
1
1
1
1
1
1
1
1
1
1
1
1
1
1
1
1
1
1
1
1
1
1
1
1
1
1
1
1
1
1
1
1
1
1
1
1
1
1
1
1
1
1
1
1
1
1
1
1
1
0.999999
1
1.00007
1.00105
1.00652
1.03091
1.09846
1.20453
1.32586
1.41863
1.47112
1.51786
1.5604
1.57153
1.56837
1.56736
1.56933
1.57412
1.57652
1.57612
1.57418
1.57339
1.57677
1.58437
1.58803
1.5889
1.59024
1.59371
1.59959
1.60555
1.60935
1
1
1
1
1
1
1
1
1
1
1
1
1
1
1
1
1
1
1
1
1
1
1
1
1
1
1
1
1
1
1
1
1
1
1
1
1
1
1
1
1
1
1
1
1
1
1
1
1
1
1
1
1
1
1.0001
1.00122
1.00833
1.04122
1.10771
1.23336
1.34335
1.42273
1.50258
1.55328
1.55268
1.5512
1.55565
1.56742
1.57328
1.57329
1.57149
1.57252
1.57965
1.58821
1.59147
1.5919
1.59403
1.60056
1.60783
1.61042
1
1
1
1
1
1
1
1
1
1
1
1
1
1
1
1
1
1
1
1
1
1
1
1
1
1
1
1
1
1
1
1
1
1
1
1
1
1
1
1
1
1
1
1
1
1
1
1
1
1
1
1
1
1
1
1
1
1.00019
1.00171
1.01372
1.05157
1.14577
1.25984
1.37537
1.4686
1.5149
1.5316
1.55274
1.57061
1.57692
1.57692
1.5757
1.57772
1.58627
1.59256
1.59457
1.5957
1.59962
1.60612
1.60986
1
1
1
1
1
1
1
1
1
1
1
1
1
1
1
1
1
1
1
1
1
1
1
1
1
1
1
1
1
1
1
1
1
1
1
1
1
1
1
1
1
1
1
1
1
1
1
1
1
1
1
1
1
1
1
1
1
1
0.999999
1.00002
1.00036
1.00369
1.01968
1.07897
1.17418
1.2939
1.41242
1.48207
1.51513
1.54842
1.57186
1.57652
1.57405
1.57657
1.58781
1.59838
1.59985
1.5998
1.60264
1.60789
1
1
1
1
1
1
1
1
1
1
1
1
1
1
1
1
1
1
1
1
1
1
1
1
1
1
1
1
1
1
1
1
1
1
1
1
1
1
1
1
1
1
1
1
1
1
1
1
1
1
1
1
1
1
1
1
1
1
1
1
1
1
1.00005
1.00089
1.00602
1.03288
1.11032
1.22438
1.35054
1.44145
1.49812
1.54898
1.5725
1.57378
1.57983
1.59473
1.60317
1.60602
1.60585
1.60635
1
1
1
1
1
1
1
1
1
1
1
1
1
1
1
1
1
1
1
1
1
1
1
1
1
1
1
1
1
1
1
1
1
1
1
1
1
1
1
1
1
1
1
1
1
1
1
1
1
1
1
1
1
1
1
1
1
1
1
1
1
1
1
1
1
1.00017
1.00207
1.01367
1.05944
1.15682
1.29093
1.39579
1.47851
1.54702
1.56289
1.57346
1.59289
1.60602
1.60726
1.60562
1
1
1
1
1
1
1
1
1
1
1
1
1
1
1
1
1
1
1
1
1
1
1
1
1
1
1
1
1
1
1
1
1
1
1
1
1
1
1
1
1
1
1
1
1
1
1
1
1
1
1
1
1
1
1
1
1
1
1
1
1
1
1
1
1
1
1
1.00003
1.00056
1.0052
1.03073
1.1014
1.22168
1.34682
1.44994
1.51996
1.55553
1.58254
1.60233
1.60476
1
1
1
1
1
1
1
1
1
1
1
1
1
1
1
1
1
1
1
1
1
1
1
1
1
1
1
1
1
1
1
1
1
1
1
1
1
1
1
1
1
1
1
1
1
1
1
1
1
1
1
1
1
1
1
1
1
1
1
1
1
1
1
1
1
1
1
1
1
1
1.00016
1.00182
1.01324
1.05649
1.1555
1.2764
1.39384
1.48129
1.53383
1.57952
1
1
1
1
1
1
1
1
1
1
1
1
1
1
1
1
1
1
1
1
1
1
1
1
1
1
1
1
1
1
1
1
1
1
1
1
1
1
1
1
1
1
1
1
1
1
1
1
1
1
1
1
1
1
1
1
1
1
1
1
1
1
1
1
1
1
1
1
1
1
1
1
1.00003
1.00052
1.0047
1.02386
1.08259
1.18722
1.29173
1.46025
1
1
1
1
1
1
1
1
1
1
1
1
1
1
1
1
1
1
1
1
1
1
1
1
1
1
1
1
1
1
1
1
1
1
1
1
1
1
1
1
1
1
1
1
1
1
1
1
1
1
1
1
1
1
1
1
1
1
1
1
1
1
1
1
1
1
1
1
1
1
1
1
1
1
1
1.00009
1.00101
1.00688
1.02633
1.16591
1
1
1
1
1
1
1
1
1
1
1
1
1
1
1
1
1
1
1
1
1
1
1
1
1
1
1
1
1
1
1
1
1
1
1
1
1
1
1
1
1
1
1
1
1
1
1
1
1
1
1
1
1
1
1
1
1
1
1
1
1
1
1
1
1
1
1
1
1
1
1
1
1
1
1
1
1
1.00001
1.0001
1.00727
1
1
1
1
1
1
1
1
1
1
1
1
1
1
1
1
1
1
1
1
1
1
1
1
1
1
1
1
1
1
1
1
1
1
1
1
1
1
1
1
1
1
1
1
1
1
1
1
1
1
1
1
1
1
1
1
1
1
1
1
1
1
1
1
1
1
1
1
1
1
1
1
1
1
1
1
1
1
1
1.00003
1
1
1
1
1
1
1
1
1
1
1
1
1
1
1
1
1
1
1
1
1
1
1
1
1
1
1
1
1
1
1
1
1
1
1
1
1
1
1
1
1
1
1
1
1
1
1
1
1
1
1
1
1
1
1
1
1
1
1
1
1
1
1
1
1
1
1
1
1
1
1
1
1
1
1
1
1
1
1
1
1
1
1
1
1
1
1
1
1
1
1
1
1
1
1
1
1
1
1
1
1
1
1
1
1
1
1
1
1
1
1
1
1
1
1
1
1
1
1
1
1
1
1
1
1
1
1
1
1
1
1
1
1
1
1
1
1
1
1
1
1
1
1
1
1
1
1
1
1
1
1
1
1
1
1
1
1
1
1
1
1
1
1
1
1
1
1
1
1
1
1
1
1
1
1
1
1
1
1
1
1
1
1
1
1
1
1
1
1
1
1
1
1
1
1
1
1
1
1
1
1
1
1
1
1
1
1
1
1
1
1
1
1
1
1
1
1
1
1
1
1
1
1
1
1
1
1
1
1
1
1
1
1
1
1
1
1
1
1
1
1
1
1
1
1
1
1
1
1
1
1
1
1
1
1
1
1
1
1
1
1
1
1
1
1
1
1
1
1
1
1
1
1
1
1
1
1
1
1
1
1
1
1
1
1
1
1
1
1
1
1
1
1
1
1
1
1
1
1
1
1
1
1
1
1
1
1
1
1
1
1
1
1
1
1
1
1
1
1
1
1
1
1
1
1
1
1
1
1
1
1
1
1
1
1
1
1
1
1
1
1
1
1
1
1
1
1
1
1
1
1
1
1
1
1
1
1
1
1
1
1
1
1
1
1
1
1
1
1
1
1
1
1
1
1
1
1
1
1
1
1
1
1
1
1
1
1
1
1
1
1
1
1
1
1
1
1
1
1
1
1
1
1
1
1
1
1
1
1
1
1
1
1
1
1
1
1
1
1
1
1
1
1
1
1
1
1
1
1
1
1
1
1
1
1
1
1
1
1
1
1
1
1
1
1
1
1
1
1
1
1
1
1
1
1
1
1
1
1
1
1
1
1
1
1
1
1
1
1
1
1
1
1
1
1
1
1
1
1
1
1
1
1
1
1
1
1
1
1
1
1
1
1
1
1
1
1
1
1
1
1
1
1
1
1
1
1
1
1
1
1
1
1
1
1
1
1
1
1
1
1
1
1
1
1
1
1
1
1
1
1
1
1
1
1
1
1
1
1
1
1
1
1
1
1
1
1
1
1
1
1
1
1
1
1
1
1
1
1
1
1
1
1
1
1
1
1
1
1
1
1
1
1
1
1
1
1
1
1
1
1
1
1
1
1
1
1
1
1
1
1
1
1
1
1
1
1
1
1
1
1
1
1
1
1
1
1
1
1
1
1
1
1
1
1
1
1
1
1
1
1
1
1
1
1
1
1
1
1
1
1
1
1
1
1
1
1
1
1
1
1
1
1
1
1
1
1
1
1
1
1
1
1
1
1
1
1
1
1
1
1
1
1
1
1
1
1
1
1
1
1
1
1
1
1
1
1
1
1
1
1
1
1
1
1
1
1
1
1
1
1
1
1
1
1
1
1
1
1
1
1
1
1
1
1
1
1
1
1
1
1
1
1
1
1
1
1
1
1
1
1
1
1
1
1
1
1
1
1
1
1
1
1
1
1
1
1
1
1
1
1
1
1
1
1
1
1
1
1
1
1
1
1
1
1
1
1
1
1
1
1
1
1
1
1
1
1
1
1
1
1
1
1
1
1
1
1
1
1
1
1
1
1
1
1
1
1
1
1
1
1
1
1
1
1
1
1
1
1
1
)
;

boundaryField
{
    inlet
    {
        type            fixedValue;
        value           uniform 1;
    }
    outlet
    {
        type            zeroGradient;
    }
    bottom
    {
        type            symmetryPlane;
    }
    top
    {
        type            symmetryPlane;
    }
    obstacle
    {
        type            zeroGradient;
    }
    defaultFaces
    {
        type            empty;
    }
}


// ************************************************************************* //
