/*--------------------------------*- C++ -*----------------------------------*\
| =========                 |                                                 |
| \\      /  F ield         | OpenFOAM: The Open Source CFD Toolbox           |
|  \\    /   O peration     | Version:  2206                                  |
|   \\  /    A nd           | Website:  www.openfoam.com                      |
|    \\/     M anipulation  |                                                 |
\*---------------------------------------------------------------------------*/
FoamFile
{
    version     2.0;
    format      ascii;
    arch        "LSB;label=32;scalar=64";
    class       volVectorField;
    location    "0.12";
    object      U;
}
// * * * * * * * * * * * * * * * * * * * * * * * * * * * * * * * * * * * * * //

dimensions      [0 1 -1 0 0 0 0];

internalField   nonuniform List<vector> 
75
(
(5.50505 -7.58089e-15 0)
(5.50505 -7.56381e-15 0)
(5.50505 8.25142e-17 0)
(5.50505 -1.02101e-16 0)
(5.50505 -6.52029e-15 0)
(5.50505 -2.85466e-16 0)
(5.50505 -8.8732e-15 0)
(5.50505 -8.52105e-15 0)
(5.50505 -7.74259e-15 0)
(5.50505 -8.13581e-14 0)
(5.50505 -3.95985e-15 0)
(5.50505 -4.13405e-15 0)
(5.50505 -1.09115e-14 0)
(5.50505 -9.23034e-15 0)
(5.50505 -3.47029e-14 0)
(5.50505 -7.18874e-15 0)
(5.50505 -2.70047e-16 0)
(5.50505 7.21666e-15 0)
(5.50505 1.20617e-14 0)
(5.50505 1.16549e-13 0)
(5.50505 3.19639e-15 0)
(5.50505 2.98885e-15 0)
(5.50505 8.13474e-15 0)
(5.50505 1.6795e-14 0)
(5.50505 3.91088e-14 0)
(5.47658 -0.0142901 0)
(5.42535 0.0827446 0)
(5.37814 0.105807 0)
(5.31339 0.249632 0)
(5.26544 0.317132 0)
(5.1853 0.501604 0)
(5.14303 0.585364 0)
(5.05262 0.766952 0)
(5.02353 0.91381 0)
(4.91585 1.09066 0)
(5.50578 -0.00189856 0)
(5.50408 0.00223514 0)
(5.50616 -0.00478697 0)
(5.48296 0.0474687 0)
(5.45943 0.103684 0)
(5.36518 0.332172 0)
(5.30803 0.527516 0)
(5.13117 0.946114 0)
(5.06403 1.2355 0)
(4.79757 1.67604 0)
(5.50507 -3.99142e-05 0)
(5.50506 -3.80615e-05 0)
(5.50503 -7.78766e-05 0)
(5.50501 -4.65952e-05 0)
(5.50546 -0.000997993 0)
(5.50388 0.00292714 0)
(5.50501 -0.000503957 0)
(5.48512 0.0701986 0)
(5.47429 0.129484 0)
(5.21035 0.86776 0)
(5.50505 -1.18506e-07 0)
(5.50505 2.31351e-07 0)
(5.50504 -6.54674e-06 0)
(5.50505 -1.48099e-05 0)
(5.50507 -8.23257e-05 0)
(5.50512 -0.000180219 0)
(5.50508 -0.00013189 0)
(5.50514 -0.000536519 0)
(5.5048 0.00184582 0)
(5.41128 0.322445 0)
(5.50505 2.11918e-08 0)
(5.50505 2.04739e-08 0)
(5.50505 5.05384e-08 0)
(5.50505 -1.6841e-07 0)
(5.50505 6.31527e-07 0)
(5.50506 -2.41481e-05 0)
(5.50507 -2.69883e-05 0)
(5.50511 -0.000170788 0)
(5.5051 -9.61574e-05 0)
(5.49082 0.0262859 0)
)
;

boundaryField
{
    inlet
    {
        type            fixedValue;
        value           uniform (5.50505 0 0);
    }
    outlet
    {
        type            zeroGradient;
    }
    bottom
    {
        type            symmetryPlane;
    }
    top
    {
        type            symmetryPlane;
    }
    obstacle
    {
        type            slip;
    }
    defaultFaces
    {
        type            empty;
    }
}


// ************************************************************************* //
