/*--------------------------------*- C++ -*----------------------------------*\
| =========                 |                                                 |
| \\      /  F ield         | OpenFOAM: The Open Source CFD Toolbox           |
|  \\    /   O peration     | Version:  2206                                  |
|   \\  /    A nd           | Website:  www.openfoam.com                      |
|    \\/     M anipulation  |                                                 |
\*---------------------------------------------------------------------------*/
FoamFile
{
    version     2.0;
    format      ascii;
    arch        "LSB;label=32;scalar=64";
    class       volVectorField;
    location    "0.1";
    object      U;
}
// * * * * * * * * * * * * * * * * * * * * * * * * * * * * * * * * * * * * * //

dimensions      [0 1 -1 0 0 0 0];

internalField   nonuniform List<vector> 
75
(
(6.23232 -3.37392e-15 0)
(6.23232 -3.35891e-15 0)
(6.23232 7.75134e-17 0)
(6.23232 -3.41726e-17 0)
(6.23232 -3.34224e-16 0)
(6.23232 -1.45859e-16 0)
(6.23232 -4.06695e-15 0)
(6.23232 -4.01611e-15 0)
(6.23232 -3.92943e-15 0)
(6.23232 -3.62035e-15 0)
(6.23232 -2.46042e-15 0)
(6.23232 -3.82024e-15 0)
(6.23232 -6.86494e-15 0)
(6.23232 -6.0673e-15 0)
(6.23232 -1.39667e-15 0)
(6.23232 -3.16971e-15 0)
(6.23232 3.62313e-15 0)
(6.23232 1.10452e-14 0)
(6.23232 1.37436e-14 0)
(6.23232 1.72404e-14 0)
(6.23232 2.30957e-15 0)
(6.23232 3.83775e-15 0)
(6.23232 9.45247e-15 0)
(6.23232 1.60111e-14 0)
(6.23232 1.58627e-14 0)
(6.20867 -0.0198277 0)
(6.16499 0.098969 0)
(6.12751 0.0547654 0)
(6.06034 0.269501 0)
(6.02624 0.2666 0)
(5.93802 0.516134 0)
(5.91312 0.538967 0)
(5.7999 0.814436 0)
(5.81016 0.851234 0)
(5.64815 1.13454 0)
(6.23232 5.12989e-06 0)
(6.23233 1.08582e-05 0)
(6.24157 -0.0195852 0)
(6.21932 0.0510109 0)
(6.22193 0.0203838 0)
(6.14111 0.211886 0)
(6.1101 0.333756 0)
(5.92036 0.795981 0)
(5.89884 1.02581 0)
(5.57397 1.70897 0)
(6.23232 2.14623e-08 0)
(6.23232 -2.78235e-08 0)
(6.23233 -2.50258e-05 0)
(6.23233 -2.41159e-05 0)
(6.23243 -0.00031504 0)
(6.23225 0.000180251 0)
(6.23527 -0.00869452 0)
(6.22803 0.0225515 0)
(6.22513 0.0229471 0)
(6.04198 0.617584 0)
(6.23232 3.55958e-10 0)
(6.23232 2.5227e-10 0)
(6.23232 2.63887e-07 0)
(6.23232 -3.07739e-07 0)
(6.23234 -3.01096e-05 0)
(6.23233 -2.73326e-05 0)
(6.23252 -0.000320299 0)
(6.23247 -0.000691641 0)
(6.2324 -0.000451486 0)
(6.2137 0.0788601 0)
(6.23232 -1.2473e-12 0)
(6.23232 3.50535e-11 0)
(6.23232 4.72748e-08 0)
(6.23232 2.67522e-08 0)
(6.23232 1.07962e-07 0)
(6.23232 -3.70498e-06 0)
(6.23232 1.02199e-06 0)
(6.23235 -9.52827e-05 0)
(6.23239 -0.000173823 0)
(6.23173 0.00169428 0)
)
;

boundaryField
{
    inlet
    {
        type            fixedValue;
        value           uniform (6.23232 0 0);
    }
    outlet
    {
        type            zeroGradient;
    }
    bottom
    {
        type            symmetryPlane;
    }
    top
    {
        type            symmetryPlane;
    }
    obstacle
    {
        type            slip;
    }
    defaultFaces
    {
        type            empty;
    }
}


// ************************************************************************* //
