/*--------------------------------*- C++ -*----------------------------------*\
| =========                 |                                                 |
| \\      /  F ield         | OpenFOAM: The Open Source CFD Toolbox           |
|  \\    /   O peration     | Version:  2206                                  |
|   \\  /    A nd           | Website:  www.openfoam.com                      |
|    \\/     M anipulation  |                                                 |
\*---------------------------------------------------------------------------*/
FoamFile
{
    version     2.0;
    format      ascii;
    arch        "LSB;label=32;scalar=64";
    class       volVectorField;
    location    "0.1";
    object      U;
}
// * * * * * * * * * * * * * * * * * * * * * * * * * * * * * * * * * * * * * //

dimensions      [0 1 -1 0 0 0 0];

internalField   nonuniform List<vector> 
4800
(
(4.9798 -1.00351e-15 0)
(4.9798 -2.15104e-14 0)
(4.9798 -3.64196e-14 0)
(4.9798 -3.43259e-14 0)
(4.9798 -2.01468e-14 0)
(4.9798 -6.82785e-15 0)
(4.9798 -1.55494e-14 0)
(4.9798 -9.70834e-15 0)
(4.9798 2.38708e-15 0)
(4.9798 -1.15487e-14 0)
(4.9798 -2.1017e-14 0)
(4.9798 4.83083e-15 0)
(4.9798 4.91218e-14 0)
(4.9798 2.95518e-14 0)
(4.9798 5.62264e-14 0)
(4.9798 6.25141e-14 0)
(4.9798 3.93101e-14 0)
(4.9798 2.7108e-14 0)
(4.9798 1.44925e-14 0)
(4.9798 3.91468e-14 0)
(4.9798 5.46061e-14 0)
(4.9798 3.32724e-14 0)
(4.9798 6.86118e-15 0)
(4.9798 4.88418e-15 0)
(4.9798 -1.58694e-14 0)
(4.9798 -3.55761e-14 0)
(4.9798 -1.82598e-14 0)
(4.9798 2.21205e-14 0)
(4.9798 4.4231e-14 0)
(4.9798 -4.06404e-15 0)
(4.9798 -6.81851e-14 0)
(4.9798 -5.98437e-15 0)
(4.9798 5.5783e-14 0)
(4.9798 4.06103e-14 0)
(4.9798 2.94184e-14 0)
(4.9798 5.2109e-14 0)
(4.9798 5.85434e-14 0)
(4.9798 -5.50528e-14 0)
(4.9798 -8.83819e-15 0)
(4.9798 3.61729e-15 0)
(4.9798 -3.53061e-15 0)
(4.9798 -9.96505e-15 0)
(4.9798 -3.10887e-14 0)
(4.9798 -2.65879e-14 0)
(4.9798 4.86751e-16 0)
(4.9798 1.98401e-14 0)
(4.9798 9.31494e-15 0)
(4.9798 6.59781e-15 0)
(4.9798 3.02586e-14 0)
(4.9798 6.72683e-14 0)
(4.9798 4.0247e-14 0)
(4.9798 2.74581e-14 0)
(4.9798 4.32008e-14 0)
(4.9798 3.6743e-14 0)
(4.9798 2.97385e-14 0)
(4.9798 3.45593e-14 0)
(4.9798 1.02651e-14 0)
(4.9798 7.70133e-15 0)
(4.9798 -2.97718e-15 0)
(4.9798 -2.42775e-14 0)
(4.9798 -4.83884e-14 0)
(4.9798 -5.04354e-14 0)
(4.9798 -1.06468e-13 0)
(4.9798 -9.2466e-14 0)
(4.9798 -4.68181e-14 0)
(4.9798 -6.64648e-14 0)
(4.9798 -4.13405e-15 0)
(4.9798 -1.69729e-14 0)
(4.9798 -1.80631e-14 0)
(4.9798 -2.69413e-14 0)
(4.9798 2.58178e-14 0)
(4.9798 -5.36093e-15 0)
(4.9798 -1.36557e-14 0)
(4.9798 -6.81351e-14 0)
(4.9798 -8.1294e-14 0)
(4.9798 -9.33128e-14 0)
(4.9798 1.86332e-14 0)
(4.9798 3.62163e-14 0)
(4.9798 6.94187e-14 0)
(4.9798 7.30335e-14 0)
(4.9798 -2.13037e-15 0)
(4.9798 6.70449e-15 0)
(4.9798 1.83732e-14 0)
(4.9798 4.2704e-14 0)
(4.9798 4.28007e-14 0)
(4.9798 2.90217e-14 0)
(4.9798 5.79367e-14 0)
(4.9798 9.47664e-14 0)
(4.9798 1.43101e-13 0)
(4.9798 1.7117e-13 0)
(4.9798 1.66199e-13 0)
(4.9798 1.35217e-13 0)
(4.9798 7.70866e-14 0)
(4.9798 8.27343e-14 0)
(4.9798 7.68799e-14 0)
(4.9798 7.60698e-14 0)
(4.9798 5.05721e-14 0)
(4.9798 2.3234e-14 0)
(4.9798 -3.10887e-14 0)
(4.9798 -1.38124e-13 0)
(4.9798 -1.92773e-13 0)
(4.9798 -1.75567e-13 0)
(4.9798 -7.31693e-14 0)
(4.9798 -3.72431e-14 0)
(4.9798 2.15237e-14 0)
(4.9798 1.32756e-14 0)
(4.9798 -1.28235e-13 0)
(4.9798 -2.00565e-13 0)
(4.9798 -2.3418e-13 0)
(4.9798 -2.3451e-13 0)
(4.9798 -9.8267e-14 0)
(4.9798 -1.00551e-14 0)
(4.9798 -1.56194e-14 0)
(4.9798 -3.00819e-14 0)
(4.9798 -1.23715e-13 0)
(4.9798 -1.36534e-13 0)
(4.9798 -4.34542e-14 0)
(4.9798 1.7603e-14 0)
(4.9798 6.05771e-15 0)
(4.9798 -1.37e-14 0)
(4.9798 -5.5743e-15 0)
(4.9798 1.04085e-14 0)
(4.9798 3.29724e-15 0)
(4.9798 -1.30022e-16 0)
(4.9798 -8.65483e-15 0)
(4.9798 2.46709e-15 0)
(4.9798 2.11303e-14 0)
(4.9798 4.59879e-14 0)
(4.9798 1.90866e-14 0)
(4.9798 1.19021e-15 0)
(4.9798 2.52944e-14 0)
(4.9798 4.2304e-14 0)
(4.9798 2.96918e-14 0)
(4.9798 4.18406e-14 0)
(4.9798 9.2776e-14 0)
(4.9798 1.10866e-13 0)
(4.9798 9.66634e-14 0)
(4.9798 9.15825e-15 0)
(4.9798 -7.5063e-14 0)
(4.9798 -7.33793e-14 0)
(4.9798 -1.50159e-14 0)
(4.9798 2.00835e-14 0)
(4.9798 3.92268e-14 0)
(4.9798 3.21089e-14 0)
(4.9798 5.46328e-14 0)
(4.9798 -1.04418e-14 0)
(4.9798 -8.02072e-14 0)
(4.9798 -8.51847e-14 0)
(4.9798 -8.1234e-14 0)
(4.9798 -8.26476e-14 0)
(4.9798 -1.11079e-13 0)
(4.9798 -1.43038e-13 0)
(4.9798 -1.38711e-13 0)
(4.9798 -1.26135e-13 0)
(4.9798 -1.70369e-13 0)
(4.9798 -1.64118e-13 0)
(4.9798 -1.25418e-13 0)
(4.9798 -1.14036e-13 0)
(4.9798 -8.98488e-14 0)
(4.9798 -8.13875e-14 0)
(4.9798 5.18089e-15 0)
(4.9798 1.62561e-14 0)
(4.9798 1.14053e-14 0)
(4.9798 -3.35391e-14 0)
(4.9798 -5.39893e-14 0)
(4.9798 -7.10789e-15 0)
(4.9798 -5.25557e-14 0)
(4.9798 -9.72268e-14 0)
(4.9798 -9.08224e-14 0)
(4.9798 -1.04675e-13 0)
(4.9798 -7.65999e-14 0)
(4.9798 -4.52845e-14 0)
(4.9798 2.18704e-14 0)
(4.9798 7.1629e-14 0)
(4.9798 5.94569e-14 0)
(4.9798 5.51895e-14 0)
(4.9798 1.91266e-14 0)
(4.9798 2.50643e-14 0)
(4.9798 3.49727e-15 0)
(4.9798 -1.06018e-15 0)
(4.9798 1.08785e-14 0)
(4.9798 2.92084e-14 0)
(4.9798 2.81549e-14 0)
(4.9798 -1.88099e-14 0)
(4.9798 -3.07153e-14 0)
(4.9798 -1.23821e-14 0)
(4.9798 5.60997e-14 0)
(4.9798 3.99169e-14 0)
(4.9798 6.25641e-14 0)
(4.9798 1.41971e-13 0)
(4.9798 1.43101e-13 0)
(4.9798 6.1734e-14 0)
(4.9798 4.23406e-14 0)
(4.9798 -4.20773e-14 0)
(4.9798 -2.60478e-14 0)
(4.9798 -6.07772e-15 0)
(4.9798 -2.54544e-14 0)
(4.9798 -3.28223e-14 0)
(4.9798 -3.57195e-14 0)
(4.9798 -4.28e-14 0)
(4.9798 9.10491e-15 0)
(4.9798 -2.70047e-15 0)
(4.9798 -1.41991e-14 0)
(4.9798 -1.94e-14 0)
(4.9798 -9.52831e-15 0)
(4.9798 -5.31292e-14 0)
(4.9798 -1.05248e-13 0)
(4.9798 -1.09242e-13 0)
(4.9798 -7.73767e-14 0)
(4.9798 -5.05854e-14 0)
(4.9798 -5.75966e-14 0)
(4.9798 -8.00172e-14 0)
(4.9798 -6.25575e-14 0)
(4.9798 3.18822e-14 0)
(4.9798 1.07259e-13 0)
(4.9798 9.99173e-14 0)
(4.9798 5.6243e-14 0)
(4.9798 1.76764e-14 0)
(4.9798 1.49326e-14 0)
(4.9798 -2.97385e-15 0)
(4.9798 -3.04953e-14 0)
(4.9798 2.39875e-14 0)
(4.9798 6.75517e-14 0)
(4.9798 7.41061e-14 0)
(4.9798 3.31324e-14 0)
(4.9798 3.40559e-14 0)
(4.9798 4.18506e-14 0)
(4.9798 3.16055e-14 0)
(4.9798 5.43761e-15 0)
(4.9798 6.41444e-15 0)
(4.9798 6.51513e-14 0)
(4.9798 1.3623e-13 0)
(4.9798 1.12676e-13 0)
(4.9798 -5.79767e-15 0)
(4.9798 -3.68364e-14 0)
(4.9798 -3.883e-14 0)
(4.9798 -4.91085e-14 0)
(4.9798 -5.08421e-15 0)
(4.9798 1.959e-14 0)
(4.9798 1.27517e-14 0)
(4.9798 4.36409e-15 0)
(4.9798 -2.62712e-15 0)
(4.9798 -2.22938e-14 0)
(4.9798 -2.04102e-14 0)
(4.9798 -2.63479e-14 0)
(4.9798 -6.73316e-14 0)
(4.9798 -4.83217e-14 0)
(4.9798 -2.95118e-14 0)
(4.9798 -3.45526e-14 0)
(4.9798 -4.27674e-14 0)
(4.9798 -5.70732e-14 0)
(4.9798 -1.13786e-13 0)
(4.9798 -1.20998e-13 0)
(4.9798 -7.07689e-14 0)
(4.9798 -3.80066e-15 0)
(4.9798 9.88171e-15 0)
(4.9798 5.90435e-15 0)
(4.9798 -4.41776e-14 0)
(4.9798 -2.03902e-14 0)
(4.9798 1.14086e-14 0)
(4.9798 7.73134e-15 0)
(4.9798 -6.30075e-14 0)
(4.9798 -1.28872e-13 0)
(4.9798 -1.24091e-13 0)
(4.9798 -1.24451e-13 0)
(4.9798 -7.83202e-14 0)
(4.9798 -6.23141e-14 0)
(4.9798 -2.86583e-14 0)
(4.9798 -2.29873e-14 0)
(4.9798 -3.63263e-14 0)
(4.9798 -2.84849e-14 0)
(4.9798 -2.12503e-14 0)
(4.9798 1.49259e-14 0)
(4.9798 3.01519e-14 0)
(4.9798 7.3346e-16 0)
(4.9798 -8.16808e-16 0)
(4.9798 2.10603e-14 0)
(4.9798 3.71698e-14 0)
(4.9798 9.24193e-14 0)
(4.9798 1.46698e-13 0)
(4.9798 -4.0407e-15 0)
(4.9798 -2.05235e-14 0)
(4.9798 -1.09186e-14 0)
(4.9798 1.64028e-15 0)
(4.9798 -6.12439e-15 0)
(4.9798 -4.78849e-14 0)
(4.9798 -5.26558e-14 0)
(4.9798 -5.66998e-14 0)
(4.9798 -8.74518e-14 0)
(4.9798 -1.01828e-13 0)
(4.9798 -1.05445e-13 0)
(4.9798 -7.12756e-14 0)
(4.9798 -8.4928e-14 0)
(4.9798 -1.27425e-13 0)
(4.9798 -2.19531e-13 0)
(4.9798 -2.10936e-13 0)
(4.9798 -1.30309e-13 0)
(4.9798 -1.21178e-13 0)
(4.9798 -1.09409e-13 0)
(4.9798 -1.00311e-13 0)
(4.9798 -1.07572e-13 0)
(4.9798 -1.5247e-13 0)
(4.9798 -1.9452e-13 0)
(4.9798 -2.00368e-13 0)
(4.9798 -2.08419e-13 0)
(4.9798 -1.56537e-13 0)
(4.9798 -1.40888e-13 0)
(4.9798 -1.10832e-13 0)
(4.9798 -7.41228e-14 0)
(4.9798 -7.66632e-14 0)
(4.9798 -7.3096e-14 0)
(4.9798 -5.79667e-14 0)
(4.9798 -3.75598e-14 0)
(4.9798 -1.62295e-14 0)
(4.9798 -1.43725e-14 0)
(4.9798 -3.95435e-14 0)
(4.9798 -3.45426e-14 0)
(4.9798 -2.71447e-14 0)
(4.9798 -2.83116e-14 0)
(4.9798 -4.72516e-14 0)
(4.9798 -1.25455e-14 0)
(4.9798 -9.04823e-15 0)
(4.9798 1.61661e-14 0)
(4.9798 4.65147e-14 0)
(4.9798 5.75366e-14 0)
(4.9798 5.32592e-14 0)
(4.9798 3.96735e-15 0)
(4.9798 -8.34477e-15 0)
(4.9798 -3.72831e-14 0)
(4.9798 -4.08404e-14 0)
(4.9798 -2.6938e-14 0)
(4.9798 3.55395e-15 0)
(4.9798 -9.96439e-14 0)
(4.9798 -1.49506e-13 0)
(4.9798 -1.54993e-13 0)
(4.9798 -1.84525e-13 0)
(4.9798 -1.97664e-13 0)
(4.9798 -1.79658e-13 0)
(4.9798 -1.89516e-13 0)
(4.9798 -1.86092e-13 0)
(4.9798 -1.69749e-13 0)
(4.9798 -9.69001e-14 0)
(4.9798 -4.12405e-15 0)
(4.9798 -1.58861e-14 0)
(4.9798 -4.23573e-14 0)
(4.9798 -6.74216e-14 0)
(4.9798 -1.35623e-14 0)
(4.9798 -1.57894e-14 0)
(4.9798 -8.41112e-14 0)
(4.9798 -9.37262e-14 0)
(4.9798 -9.44496e-14 0)
(4.9798 -1.75864e-13 0)
(4.9798 -2.84249e-13 0)
(4.9798 -2.61569e-13 0)
(4.9798 -1.29592e-13 0)
(4.9798 -1.89866e-14 0)
(4.9798 -5.90769e-14 0)
(4.9798 -1.23678e-13 0)
(4.9798 -1.37554e-13 0)
(4.9798 -1.43319e-13 0)
(4.9798 4.20406e-15 0)
(4.9798 3.22389e-15 0)
(4.9798 -4.72415e-15 0)
(4.9798 7.728e-15 0)
(4.9798 -7.07789e-15 0)
(4.9798 1.33756e-14 0)
(4.9798 3.69797e-14 0)
(4.9798 2.71547e-14 0)
(4.9798 3.63863e-14 0)
(4.9798 1.22588e-14 0)
(4.9798 3.14021e-14 0)
(4.9798 2.40141e-14 0)
(4.9798 4.47744e-15 0)
(4.9798 -9.2416e-15 0)
(4.9798 -3.35391e-14 0)
(4.9798 -1.49529e-13 0)
(4.9798 -1.94454e-13 0)
(4.9798 -1.82472e-13 0)
(4.9798 -1.89089e-13 0)
(4.9798 -1.93173e-13 0)
(4.9798 -1.09366e-13 0)
(4.9798 -5.55696e-14 0)
(4.9798 4.39643e-14 0)
(4.9798 5.3826e-14 0)
(4.9798 4.2344e-14 0)
(4.9798 2.05302e-14 0)
(4.9798 1.38957e-14 0)
(4.9798 -8.02005e-14 0)
(4.9798 -1.08939e-13 0)
(4.9798 -1.18054e-13 0)
(4.9798 -1.5172e-13 0)
(4.9798 -2.02442e-13 0)
(4.9798 -1.51369e-13 0)
(4.9798 -1.32043e-13 0)
(4.9798 -1.17287e-13 0)
(4.9798 -1.27762e-13 0)
(4.9798 -1.29902e-13 0)
(4.9798 -2.07362e-13 0)
(4.9798 -2.19281e-13 0)
(4.9798 -1.96728e-13 0)
(4.9798 1.78798e-14 0)
(4.9798 2.68013e-14 0)
(4.9798 -6.98787e-15 0)
(4.9798 -3.27123e-14 0)
(4.9798 -4.95152e-14 0)
(4.9798 -4.85717e-14 0)
(4.9798 -4.07404e-14 0)
(4.9798 -4.2524e-14 0)
(4.9798 -1.65562e-14 0)
(4.9798 5.80767e-14 0)
(4.9798 7.34393e-14 0)
(4.9798 6.91053e-14 0)
(4.9798 1.50889e-13 0)
(4.9798 1.43985e-13 0)
(4.9798 5.79033e-14 0)
(4.9798 7.06789e-16 0)
(4.9798 3.33391e-18 0)
(4.9798 -3.89734e-15 0)
(4.9798 -1.44725e-14 0)
(4.9798 -2.60312e-14 0)
(4.9798 -5.11722e-14 0)
(4.9798 1.27955e-14 0)
(4.9798 1.06822e-13 0)
(4.9798 1.38657e-13 0)
(4.9798 9.48764e-14 0)
(4.9798 1.04818e-14 0)
(4.9798 -1.38227e-13 0)
(4.9798 -2.50657e-13 0)
(4.9798 -2.55177e-13 0)
(4.9798 -2.35414e-13 0)
(4.9798 -2.31757e-13 0)
(4.9798 -1.92333e-13 0)
(4.9798 -1.28496e-13 0)
(4.9798 -1.7361e-13 0)
(4.9798 -1.74403e-13 0)
(4.9798 -1.58077e-13 0)
(4.9798 -1.00147e-13 0)
(4.9798 -6.76684e-14 0)
(4.9798 -8.02505e-14 0)
(4.9798 -9.92651e-14 0)
(4.9798 2.00035e-16 0)
(4.9798 4.60179e-14 0)
(4.9798 8.19508e-14 0)
(4.9798 3.91168e-14 0)
(4.9798 4.70515e-14 0)
(4.9798 4.19839e-14 0)
(4.9798 4.16039e-14 0)
(4.9798 5.84434e-14 0)
(4.9798 2.83149e-14 0)
(4.9798 8.57148e-15 0)
(4.9798 2.56311e-14 0)
(4.9798 5.9927e-14 0)
(4.9798 8.77985e-14 0)
(4.9798 6.51946e-14 0)
(4.9798 -7.68799e-15 0)
(4.9798 1.70196e-14 0)
(4.9798 5.74266e-14 0)
(4.9798 1.41928e-13 0)
(4.9798 1.21828e-13 0)
(4.9798 1.04201e-13 0)
(4.9798 8.30377e-14 0)
(4.9798 1.14533e-13 0)
(4.9798 1.31836e-13 0)
(4.9798 8.41879e-14 0)
(4.9798 8.70817e-15 0)
(4.9798 -9.24026e-14 0)
(4.9798 -1.24842e-13 0)
(4.9798 -6.73883e-14 0)
(4.9798 -6.20741e-14 0)
(4.9798 -1.3541e-13 0)
(4.9798 -2.23672e-13 0)
(4.9798 -2.46406e-13 0)
(4.9798 -1.33086e-13 0)
(4.9798 -1.63728e-14 0)
(4.9798 -1.06718e-14 0)
(4.9798 -4.53745e-15 0)
(4.9798 2.15337e-14 0)
(4.9798 2.39575e-14 0)
(4.9798 1.39124e-14 0)
(4.9798 -1.05434e-14 0)
(4.9798 -9.8617e-15 0)
(4.9798 -1.954e-14 0)
(4.9798 1.26288e-14 0)
(4.9798 2.65846e-14 0)
(4.9798 5.91269e-14 0)
(4.9798 8.91721e-14 0)
(4.9798 1.1777e-13 0)
(4.9798 9.80436e-14 0)
(4.9798 2.46143e-14 0)
(4.9798 -5.36926e-14 0)
(4.9798 -5.21323e-14 0)
(4.9798 -3.74998e-14 0)
(4.9798 -9.21826e-15 0)
(4.9798 -3.72731e-15 0)
(4.9798 -1.70263e-14 0)
(4.9798 2.33374e-16 0)
(4.9798 1.49259e-14 0)
(4.9798 1.80865e-14 0)
(4.9798 3.22856e-14 0)
(4.9798 4.35642e-14 0)
(4.9798 4.55112e-14 0)
(4.9798 5.72132e-14 0)
(4.9798 -3.76098e-14 0)
(4.9798 -1.07649e-13 0)
(4.9798 -8.25843e-14 0)
(4.9798 -6.3881e-14 0)
(4.9798 4.01403e-15 0)
(4.9798 8.33477e-14 0)
(4.9798 1.14813e-13 0)
(4.9798 1.00844e-13 0)
(4.9798 8.6785e-14 0)
(4.9798 9.79869e-14 0)
(4.9798 1.05532e-13 0)
(4.9798 1.21874e-13 0)
(4.9798 9.54932e-14 0)
(4.9798 1.02034e-13 0)
(4.9798 8.50414e-14 0)
(4.9798 -3.3039e-15 0)
(4.9798 6.82451e-15 0)
(4.9798 -1.32301e-14 0)
(4.9798 1.63028e-15 0)
(4.9798 6.3911e-15 0)
(4.9798 -2.45209e-14 0)
(4.9798 -3.02952e-14 0)
(4.9798 -2.76414e-14 0)
(4.9798 5.06154e-14 0)
(4.9798 1.43018e-13 0)
(4.9798 1.30456e-13 0)
(4.9798 4.88951e-14 0)
(4.9798 3.15621e-14 0)
(4.9798 3.24989e-14 0)
(4.9798 2.1267e-14 0)
(4.9798 6.28242e-14 0)
(4.9798 1.23651e-13 0)
(4.9798 1.77457e-13 0)
(4.9798 1.03081e-13 0)
(4.9798 5.79e-14 0)
(4.9798 -5.06754e-16 0)
(4.9798 -4.16339e-14 0)
(4.9798 -4.72015e-14 0)
(4.9798 -3.20255e-14 0)
(4.9798 -4.76816e-14 0)
(4.9798 -6.23141e-14 0)
(4.9798 -6.78651e-14 0)
(4.9798 -3.44359e-14 0)
(4.9798 4.10871e-14 0)
(4.9798 1.06395e-13 0)
(4.9798 1.80935e-13 0)
(4.9798 1.77381e-13 0)
(4.9798 2.12403e-13 0)
(4.9798 2.26649e-13 0)
(4.9798 2.48633e-13 0)
(4.9798 2.04952e-13 0)
(4.9798 8.00672e-14 0)
(4.9798 -5.56096e-15 0)
(4.9798 9.61166e-15 0)
(4.9798 4.85084e-15 0)
(4.9798 -1.77031e-14 0)
(4.9798 -4.81917e-14 0)
(4.9798 -6.53871e-14 0)
(4.9798 4.4641e-15 0)
(4.9798 -9.02823e-15 0)
(4.9798 -4.22006e-14 0)
(4.9798 -3.70631e-14 0)
(4.9798 -2.15937e-14 0)
(4.9798 -2.27006e-14 0)
(4.9798 -4.70048e-14 0)
(4.9798 -2.9095e-14 0)
(4.9798 1.59027e-14 0)
(4.9798 3.17521e-14 0)
(4.9798 -3.00385e-15 0)
(4.9798 -5.70732e-14 0)
(4.9798 -4.10438e-14 0)
(4.9798 1.58931e-13 0)
(4.9798 1.82201e-13 0)
(4.9798 1.80688e-13 0)
(4.9798 1.70203e-13 0)
(4.9798 1.01604e-13 0)
(4.9798 5.66965e-14 0)
(4.9798 5.51995e-14 0)
(4.9798 1.1817e-13 0)
(4.9798 1.23598e-13 0)
(4.9798 1.29486e-13 0)
(4.9798 8.17808e-14 0)
(4.9798 6.32776e-14 0)
(4.9798 5.35392e-14 0)
(4.9798 9.8607e-14 0)
(4.9798 1.15483e-13 0)
(4.9798 5.46428e-14 0)
(4.9798 5.804e-14 0)
(4.9798 5.34992e-14 0)
(4.9798 6.38444e-14 0)
(4.9798 7.00888e-14 0)
(4.9798 7.60398e-14 0)
(4.9798 5.75599e-14 0)
(4.9798 3.66763e-14 0)
(4.9798 -4.37409e-15 0)
(4.9798 9.93505e-16 0)
(4.9798 -3.21822e-14 0)
(4.9798 -7.26587e-14 0)
(4.9798 -1.50093e-14 0)
(4.9798 -6.44911e-14 0)
(4.9798 -4.96152e-14 0)
(4.9798 -6.04438e-15 0)
(4.9798 -1.03318e-14 0)
(4.9798 -7.51496e-14 0)
(4.9798 -1.34633e-13 0)
(4.9798 -1.10019e-13 0)
(4.9798 -2.65046e-14 0)
(4.9798 -2.06702e-14 0)
(4.9798 -3.16555e-14 0)
(4.9798 -6.18007e-14 0)
(4.9798 -5.70165e-14 0)
(4.9798 -4.8235e-14 0)
(4.9798 6.57113e-14 0)
(4.9798 8.81419e-14 0)
(4.9798 1.05138e-13 0)
(4.9798 1.62151e-13 0)
(4.9798 1.63522e-13 0)
(4.9798 1.62925e-13 0)
(4.9798 1.48312e-13 0)
(4.9798 1.57794e-13 0)
(4.9798 1.40761e-13 0)
(4.9798 1.21084e-13 0)
(4.9798 9.41896e-14 0)
(4.9798 7.68299e-14 0)
(4.9798 7.3156e-14 0)
(4.9798 5.29058e-14 0)
(4.9798 9.42663e-14 0)
(4.9798 1.04248e-13 0)
(4.9798 1.3248e-13 0)
(4.9798 1.01964e-13 0)
(4.9798 8.19808e-14 0)
(4.9798 7.23925e-14 0)
(4.9798 7.721e-14 0)
(4.9798 6.79951e-14 0)
(4.9798 3.88534e-14 0)
(4.9798 3.67497e-14 0)
(4.9798 3.28623e-14 0)
(4.9798 8.94254e-14 0)
(4.9798 2.76048e-15 0)
(4.9798 1.26589e-14 0)
(4.9798 4.11604e-14 0)
(4.9798 4.49878e-14 0)
(4.9798 3.62429e-14 0)
(4.9798 3.56195e-14 0)
(4.9798 6.50446e-14 0)
(4.9798 6.30742e-14 0)
(4.9798 1.10919e-14 0)
(4.9798 -2.3264e-14 0)
(4.9798 5.60097e-15 0)
(4.9798 6.76083e-14 0)
(4.9798 9.70901e-14 0)
(4.9798 1.65362e-14 0)
(4.9798 -1.25088e-14 0)
(4.9798 8.34477e-15 0)
(4.9798 -1.10852e-14 0)
(4.9798 3.09053e-15 0)
(4.9798 3.62363e-14 0)
(4.9798 3.94235e-14 0)
(4.9798 3.95735e-15 0)
(4.9798 -5.42994e-14 0)
(4.9798 -7.17024e-14 0)
(4.9798 -5.83701e-14 0)
(4.9798 -2.02135e-14 0)
(4.9798 2.3004e-15 0)
(4.9798 -2.23105e-14 0)
(4.9798 -4.67114e-14 0)
(4.9798 2.15404e-14 0)
(4.9798 3.53261e-14 0)
(4.9798 1.09132e-13 0)
(4.9798 1.05682e-13 0)
(4.9798 1.84465e-14 0)
(4.9798 -9.15025e-14 0)
(4.9798 -1.10869e-13 0)
(4.9798 -4.47811e-14 0)
(4.9798 3.30457e-14 0)
(4.9798 2.32507e-14 0)
(4.9798 4.29708e-14 0)
(4.9798 1.38223e-13 0)
(4.9798 5.29091e-15 0)
(4.9798 4.34308e-14 0)
(4.9798 7.63699e-14 0)
(4.9798 6.24174e-14 0)
(4.9798 5.62597e-14 0)
(4.9798 5.53062e-14 0)
(4.9798 6.71583e-14 0)
(4.9798 8.42712e-14 0)
(4.9798 7.89436e-14 0)
(4.9798 6.19507e-14 0)
(4.9798 4.99653e-14 0)
(4.9798 8.98488e-14 0)
(4.9798 9.68701e-14 0)
(4.9798 1.11736e-13 0)
(4.9798 3.6803e-14 0)
(4.9798 -1.28822e-14 0)
(4.9798 -4.53245e-14 0)
(4.9798 -6.80151e-14 0)
(4.9798 -7.65332e-14 0)
(4.9798 -9.1009e-14 0)
(4.9798 -1.42088e-13 0)
(4.9798 -1.77037e-13 0)
(4.9798 -1.87136e-13 0)
(4.9798 -1.30186e-13 0)
(4.9798 -6.59681e-14 0)
(4.9798 3.51294e-14 0)
(4.9798 3.08487e-14 0)
(4.9798 5.25891e-14 0)
(4.9798 9.11557e-14 0)
(4.9798 8.88787e-14 0)
(4.9798 6.99721e-14 0)
(4.9798 3.43393e-14 0)
(4.9798 1.95967e-14 0)
(4.9798 -1.29289e-14 0)
(4.9798 -1.97401e-14 0)
(4.9798 -2.20005e-14 0)
(4.9798 2.5371e-15 0)
(4.9798 5.41427e-15 0)
(4.9798 3.70397e-14 0)
(4.9798 7.50401e-14 0)
(4.9798 -7.09122e-15 0)
(4.9798 -1.33156e-14 0)
(4.9798 -9.08157e-15 0)
(4.9798 1.04251e-14 0)
(4.9798 -8.35811e-15 0)
(4.9798 -2.21605e-14 0)
(4.9798 -4.36842e-14 0)
(4.9798 -3.33058e-14 0)
(4.9798 -1.00784e-14 0)
(4.9798 -1.78097e-14 0)
(4.9798 -5.16689e-14 0)
(4.9798 -5.74633e-14 0)
(4.9798 -1.04028e-13 0)
(4.9798 -6.1644e-14 0)
(4.9798 -2.95751e-14 0)
(4.9798 -5.1849e-14 0)
(4.9798 -7.18257e-14 0)
(4.9798 -6.79817e-14 0)
(4.9798 -7.21958e-14 0)
(4.9798 -5.58897e-14 0)
(4.9798 -6.1764e-14 0)
(4.9798 -4.78883e-14 0)
(4.9798 -3.33391e-14 0)
(4.9798 2.22838e-14 0)
(4.9798 5.12755e-14 0)
(4.9798 8.37678e-14 0)
(4.9798 9.84503e-14 0)
(4.9798 4.06337e-14 0)
(4.9798 -4.93452e-14 0)
(4.9798 -3.21756e-14 0)
(4.9798 -1.42058e-14 0)
(4.9798 4.69514e-14 0)
(4.9798 3.60129e-14 0)
(4.9798 3.37292e-14 0)
(4.9798 2.90217e-14 0)
(4.9798 3.05886e-14 0)
(4.9798 4.31074e-14 0)
(4.9798 6.40511e-14 0)
(4.9798 6.47645e-14 0)
(4.9798 1.0435e-13 0)
(4.9798 -7.36794e-16 0)
(4.9798 -4.00402e-15 0)
(4.9798 -3.02719e-14 0)
(4.9798 -3.79699e-14 0)
(4.9798 -5.70832e-14 0)
(4.9798 -3.95802e-14 0)
(4.9798 -4.6138e-14 0)
(4.9798 -1.22121e-13 0)
(4.9798 -1.27305e-13 0)
(4.9798 -8.71651e-14 0)
(4.9798 -6.56213e-14 0)
(4.9798 -9.31994e-14 0)
(4.9798 -1.9194e-13 0)
(4.9798 -2.59575e-13 0)
(4.9798 -2.34357e-13 0)
(4.9798 -2.20641e-13 0)
(4.9798 -1.48579e-13 0)
(4.9798 -5.26858e-14 0)
(4.9798 9.58832e-15 0)
(4.9798 1.1312e-14 0)
(4.9798 2.67046e-15 0)
(4.9798 4.0757e-14 0)
(4.9798 1.32563e-13 0)
(4.9798 1.01984e-13 0)
(4.9798 7.27392e-14 0)
(4.9798 -1.30222e-14 0)
(4.9798 -5.0042e-14 0)
(4.9798 -5.08388e-14 0)
(4.9798 -7.19791e-14 0)
(4.9798 -7.64599e-14 0)
(4.9798 -5.19256e-14 0)
(4.9798 2.00535e-14 0)
(4.9798 5.90535e-14 0)
(4.9798 5.78967e-14 0)
(4.9798 2.53144e-14 0)
(4.9798 -1.77031e-14 0)
(4.9798 -8.75818e-15 0)
(4.9798 3.17321e-14 0)
(4.9798 4.93452e-14 0)
(4.9798 4.34621e-14 0)
(4.9798 5.5743e-15 0)
(4.9798 3.45093e-14 0)
(4.9798 2.47843e-14 0)
(4.9798 -2.75481e-14 0)
(4.9798 -1.31423e-14 0)
(4.9798 -5.28425e-15 0)
(4.9798 -9.34828e-15 0)
(4.9798 -5.09755e-14 0)
(4.9798 -4.41643e-14 0)
(4.9798 -3.27857e-14 0)
(4.9798 -4.77516e-14 0)
(4.9798 -7.04688e-14 0)
(4.9798 -7.50896e-14 0)
(4.9798 -1.36937e-13 0)
(4.9798 -1.67522e-13 0)
(4.9798 -1.46519e-13 0)
(4.9798 -8.35211e-14 0)
(4.9798 -3.05219e-14 0)
(4.9798 1.02274e-13 0)
(4.9798 1.68252e-13 0)
(4.9798 2.28466e-13 0)
(4.9798 2.06386e-13 0)
(4.9798 1.21168e-13 0)
(4.9798 9.85904e-14 0)
(4.9798 8.28943e-14 0)
(4.9798 6.7345e-14 0)
(4.9798 9.61299e-14 0)
(4.9798 1.1713e-13 0)
(4.9798 1.05158e-13 0)
(4.9798 6.30642e-14 0)
(4.9798 3.70064e-15 0)
(4.9798 -1.35723e-14 0)
(4.9798 5.779e-14 0)
(4.9798 8.91087e-14 0)
(4.9798 1.23835e-13 0)
(4.9798 1.42831e-13 0)
(4.9798 1.37207e-13 0)
(4.9798 1.21658e-13 0)
(4.9798 5.14656e-14 0)
(4.9798 3.60765e-14 0)
(4.9798 -3.46393e-15 0)
(4.9798 -2.70447e-14 0)
(4.9798 -1.88166e-14 0)
(4.9798 -1.42025e-15 0)
(4.9798 1.24388e-14 0)
(4.9798 1.47225e-14 0)
(4.9798 2.81149e-14 0)
(4.9798 8.86153e-15 0)
(4.9798 -3.14988e-14 0)
(4.9798 -3.67163e-14 0)
(4.9798 -5.51195e-14 0)
(4.9798 -5.83701e-14 0)
(4.9798 -3.79499e-14 0)
(4.9798 3.40726e-15 0)
(4.9798 -4.15738e-15 0)
(4.9798 6.10772e-15 0)
(4.9798 2.38141e-14 0)
(4.9798 5.81334e-14 0)
(4.9798 1.05275e-13 0)
(4.9798 9.27694e-14 0)
(4.9798 7.80068e-14 0)
(4.9798 4.80016e-14 0)
(4.9798 3.00919e-14 0)
(4.9798 1.25515e-13 0)
(4.9798 1.56257e-13 0)
(4.9798 2.01308e-13 0)
(4.9798 1.90456e-13 0)
(4.9798 1.23468e-13 0)
(4.9798 5.72099e-14 0)
(4.9798 2.90884e-14 0)
(4.9798 -3.4956e-14 0)
(4.9798 -1.19757e-13 0)
(4.9798 -7.22025e-14 0)
(4.9798 1.26829e-13 0)
(4.9798 2.06302e-13 0)
(4.9798 2.42375e-13 0)
(4.9798 1.58391e-13 0)
(4.9798 5.64331e-14 0)
(4.9798 -1.30356e-15 0)
(4.9798 2.92366e-14 0)
(4.9798 -1.29022e-15 0)
(4.9798 -3.39792e-14 0)
(4.9798 -1.52093e-14 0)
(4.9798 3.23623e-14 0)
(4.9798 -1.87699e-15 0)
(4.9798 -3.20122e-14 0)
(4.9798 2.40041e-15 0)
(4.9798 5.35693e-14 0)
(4.9798 4.67681e-14 0)
(4.9798 2.95384e-14 0)
(4.9798 2.5121e-14 0)
(4.9798 -1.96701e-15 0)
(4.9798 -1.27855e-14 0)
(4.9798 8.45546e-14 0)
(4.9798 1.5409e-13 0)
(4.9798 1.7189e-13 0)
(4.9798 1.76951e-13 0)
(4.9798 1.97034e-13 0)
(4.9798 1.5719e-13 0)
(4.9798 1.46585e-13 0)
(4.9798 1.25745e-13 0)
(4.9798 8.4698e-14 0)
(4.9798 4.39376e-14 0)
(4.9798 -1.5236e-15 0)
(4.9798 -2.09169e-14 0)
(4.9798 -4.76282e-14 0)
(4.9798 -9.33828e-14 0)
(4.9798 -1.00627e-13 0)
(4.9798 -8.76551e-14 0)
(4.9798 -7.44162e-14 0)
(4.9798 -5.782e-14 0)
(4.9798 -3.60529e-14 0)
(4.9798 -3.41759e-14 0)
(4.9798 2.87216e-14 0)
(4.9798 6.61514e-14 0)
(4.9798 7.60531e-14 0)
(4.9798 1.63962e-14 0)
(4.9798 -6.02437e-15 0)
(4.9798 -1.78564e-14 0)
(4.9798 -2.35836e-14 0)
(4.9798 3.31724e-15 0)
(4.9798 1.1312e-14 0)
(4.9798 7.08122e-15 0)
(4.9798 -9.90504e-15 0)
(4.9798 -1.74597e-14 0)
(4.9798 -2.35841e-14 0)
(4.9798 -1.07652e-14 0)
(4.9798 4.73048e-14 0)
(4.9798 7.04522e-14 0)
(4.9798 4.27741e-14 0)
(4.9798 1.10169e-13 0)
(4.9798 1.45618e-13 0)
(4.9798 1.56484e-13 0)
(4.9798 1.41528e-13 0)
(4.9798 2.00065e-13 0)
(4.9798 2.08406e-13 0)
(4.9798 1.99281e-13 0)
(4.9798 1.7447e-13 0)
(4.9798 1.45242e-13 0)
(4.9798 1.1483e-13 0)
(4.9798 2.37408e-14 0)
(4.9798 2.63612e-14 0)
(4.9798 3.40392e-15 0)
(4.9798 -9.74968e-14 0)
(4.9798 -1.21651e-13 0)
(4.9798 -1.1864e-13 0)
(4.9798 -1.49259e-14 0)
(4.9798 5.43561e-14 0)
(4.9798 8.86686e-14 0)
(4.9798 8.84519e-14 0)
(4.9798 -8.56815e-16 0)
(4.9798 -9.52831e-15 0)
(4.9798 2.08369e-15 0)
(4.9798 -4.15005e-14 0)
(4.9798 -4.8365e-14 0)
(4.9798 -3.6893e-14 0)
(4.9798 -4.74382e-14 0)
(4.9798 -1.12049e-13 0)
(4.9798 -1.57854e-13 0)
(4.9798 -2.29764e-13 0)
(4.9798 -4.02403e-15 0)
(4.9798 5.83434e-15 0)
(4.9798 -2.35574e-14 0)
(4.9798 -4.49711e-14 0)
(4.9798 -3.20822e-14 0)
(4.9798 -1.70329e-14 0)
(4.9798 -2.59645e-14 0)
(4.9798 -1.53527e-14 0)
(4.9798 -7.5013e-16 0)
(4.9798 8.91454e-14 0)
(4.9798 1.64975e-13 0)
(4.9798 1.87969e-13 0)
(4.9798 1.84035e-13 0)
(4.9798 1.25525e-13 0)
(4.9798 1.20397e-13 0)
(4.9798 1.45882e-13 0)
(4.9798 1.14917e-13 0)
(4.9798 -1.43358e-16 0)
(4.9798 -2.82982e-14 0)
(4.9798 -5.82401e-14 0)
(4.9798 -1.04898e-13 0)
(4.9798 -3.57928e-14 0)
(4.9798 -5.49762e-15 0)
(4.9798 -2.74914e-14 0)
(4.9798 -4.84317e-14 0)
(4.9798 -2.18738e-14 0)
(4.9798 1.69363e-14 0)
(4.9798 2.99785e-14 0)
(4.9798 2.3264e-14 0)
(4.9798 2.72347e-14 0)
(4.9798 5.91002e-14 0)
(4.9798 8.61349e-14 0)
(4.9798 6.64815e-14 0)
(4.9798 -1.04985e-14 0)
(4.9798 -5.40093e-14 0)
(4.9798 -8.19975e-14 0)
(4.9798 -1.02724e-13 0)
(4.9798 -1.20931e-13 0)
(4.9798 -1.80998e-13 0)
(4.9798 -2.0385e-13 0)
(4.9798 -5.37093e-15 0)
(4.9798 8.03139e-15 0)
(4.9798 4.03803e-14 0)
(4.9798 6.39777e-14 0)
(4.9798 4.2644e-14 0)
(4.9798 2.77981e-14 0)
(4.9798 2.93017e-14 0)
(4.9798 2.30807e-14 0)
(4.9798 1.22655e-14 0)
(4.9798 -6.67449e-15 0)
(4.9798 -2.65946e-14 0)
(4.9798 -7.30126e-15 0)
(4.9798 -7.1179e-15 0)
(4.9798 -2.8915e-14 0)
(4.9798 -4.48177e-14 0)
(4.9798 -4.09871e-14 0)
(4.9798 2.68946e-14 0)
(4.9798 6.5708e-14 0)
(4.9798 3.77565e-14 0)
(4.9798 6.39577e-14 0)
(4.9798 1.62941e-13 0)
(4.9798 1.58291e-13 0)
(4.9798 1.45892e-13 0)
(4.9798 1.76791e-13 0)
(4.9798 4.2614e-14 0)
(4.9798 2.1227e-14 0)
(4.9798 -9.2676e-14 0)
(4.9798 -1.95977e-13 0)
(4.9798 -1.59828e-13 0)
(4.9798 -1.03128e-13 0)
(4.9798 -2.91817e-14 0)
(4.9798 7.42061e-14 0)
(4.9798 7.67566e-14 0)
(4.9798 1.88199e-14 0)
(4.9798 -4.30174e-14 0)
(4.9798 -9.67e-14 0)
(4.9798 -9.62166e-14 0)
(4.9798 -7.08356e-14 0)
(4.9798 -3.01319e-14 0)
(4.9798 -4.46504e-15 0)
(4.9798 2.03102e-14 0)
(4.9798 8.44146e-15 0)
(4.9798 2.21938e-14 0)
(4.9798 4.2584e-14 0)
(4.9798 8.73484e-14 0)
(4.9798 9.06223e-14 0)
(4.9798 7.82435e-14 0)
(4.9798 6.88519e-14 0)
(4.9798 1.59194e-14 0)
(4.9798 -4.62747e-15 0)
(4.9798 -2.27806e-14 0)
(4.9798 -3.21622e-14 0)
(4.9798 -5.0032e-14 0)
(4.9798 -7.86636e-14 0)
(4.9798 -1.01354e-13 0)
(4.9798 -8.45113e-14 0)
(4.9798 -7.52597e-14 0)
(4.9798 -6.39377e-14 0)
(4.9798 -7.22658e-14 0)
(4.9798 -4.81116e-14 0)
(4.9798 2.12037e-15 0)
(4.9798 -6.20107e-15 0)
(4.9798 -7.68466e-15 0)
(4.9798 2.31307e-14 0)
(4.9798 1.12553e-14 0)
(4.9798 -9.82736e-14 0)
(4.9798 -1.67812e-13 0)
(4.9798 -1.85419e-13 0)
(4.9798 -1.67022e-13 0)
(4.9798 -1.47862e-13 0)
(4.9798 -1.49713e-13 0)
(4.9798 -7.20624e-14 0)
(4.9798 -4.96286e-14 0)
(4.9798 -5.16723e-14 0)
(4.9798 -8.23209e-14 0)
(4.9798 -1.519e-13 0)
(4.9798 -1.36967e-13 0)
(4.9798 -1.03931e-13 0)
(4.9798 -5.33726e-14 0)
(4.9798 -9.21452e-14 0)
(4.9798 6.69449e-15 0)
(4.9798 1.76764e-14 0)
(4.9798 1.66362e-15 0)
(4.9798 -1.20854e-14 0)
(4.9798 -5.86768e-16 0)
(4.9798 4.29574e-14 0)
(4.9798 3.42726e-14 0)
(4.9798 -1.50326e-14 0)
(4.9798 -3.54661e-14 0)
(4.9798 -3.58262e-14 0)
(4.9798 -2.36474e-14 0)
(4.9798 -4.04537e-14 0)
(4.9798 -4.31174e-14 0)
(4.9798 -2.77148e-14 0)
(4.9798 -1.50026e-14 0)
(4.9798 -6.07372e-14 0)
(4.9798 -8.10673e-14 0)
(4.9798 -1.32146e-13 0)
(4.9798 -1.5258e-13 0)
(4.9798 -1.34573e-13 0)
(4.9798 -2.02985e-13 0)
(4.9798 -2.91614e-13 0)
(4.9798 -3.6737e-13 0)
(4.9798 -3.37535e-13 0)
(4.9798 -1.64532e-13 0)
(4.9798 -1.58837e-13 0)
(4.9798 -1.39674e-13 0)
(4.9798 -1.05442e-13 0)
(4.9798 -5.9827e-14 0)
(4.9798 -3.92334e-14 0)
(4.9798 -1.33656e-13 0)
(4.9798 -2.43492e-13 0)
(4.9798 -2.09976e-13 0)
(4.9798 -2.02218e-13 0)
(4.9798 -2.74524e-13 0)
(4.9798 -3.01695e-13 0)
(4.9798 -9.74602e-14 0)
(4.9798 -3.62729e-14 0)
(4.9798 -3.6543e-14 0)
(4.9798 8.18844e-17 0)
(4.9798 -8.5148e-15 0)
(4.9798 1.35523e-14 0)
(4.9798 2.22172e-14 0)
(4.9798 1.83732e-14 0)
(4.9798 -3.19422e-14 0)
(4.9798 -5.11355e-14 0)
(4.9798 -3.04019e-14 0)
(4.9798 -3.77232e-14 0)
(4.9798 -4.04737e-14 0)
(4.9798 -2.8735e-14 0)
(4.9798 -1.93233e-14 0)
(4.9798 -2.55577e-14 0)
(4.9798 -4.30008e-14 0)
(4.9798 -4.95252e-14 0)
(4.9798 -1.14186e-14 0)
(4.9798 -1.20888e-14 0)
(4.9798 8.93488e-15 0)
(4.9798 1.5596e-14 0)
(4.9798 -3.00252e-14 0)
(4.9798 -1.15823e-13 0)
(4.9798 -1.63672e-13 0)
(4.9798 -2.02295e-13 0)
(4.9798 -1.64278e-13 0)
(4.9798 -1.05722e-13 0)
(4.9798 -1.25105e-13 0)
(4.9798 -1.49846e-13 0)
(4.9798 -1.42961e-13 0)
(4.9798 -1.22591e-13 0)
(4.9798 -1.16347e-13 0)
(4.9798 -1.09496e-13 0)
(4.9798 -5.55163e-14 0)
(4.9798 -1.00491e-13 0)
(4.9798 -1.87349e-13 0)
(4.9798 -2.34831e-13 0)
(4.9798 -2.98188e-13 0)
(4.9798 -3.15621e-13 0)
(4.9798 -7.92904e-14 0)
(4.9798 4.98153e-14 0)
(4.9798 5.33692e-14 0)
(4.9798 3.21571e-14 0)
(4.9798 1.70029e-15 0)
(4.9798 -1.51393e-14 0)
(4.9798 -2.1057e-14 0)
(4.9798 -1.50393e-14 0)
(4.9798 -1.38924e-14 0)
(4.9798 -5.05154e-14 0)
(4.9798 -6.42044e-14 0)
(4.9798 -4.52511e-14 0)
(4.9798 3.12054e-14 0)
(4.9798 1.10042e-13 0)
(4.9798 1.19824e-13 0)
(4.9798 7.64265e-14 0)
(4.9798 -2.62145e-14 0)
(4.9798 -9.29694e-14 0)
(4.9798 -4.51545e-14 0)
(4.9798 9.02489e-15 0)
(4.9798 1.80931e-14 0)
(4.9798 7.54797e-15 0)
(4.9798 -2.24339e-14 0)
(4.9798 -6.18607e-14 0)
(4.9798 -9.16592e-14 0)
(4.9798 -7.36227e-14 0)
(4.9798 -1.23621e-14 0)
(4.9798 -1.00717e-14 0)
(4.9798 -5.95203e-14 0)
(4.9798 -3.93768e-14 0)
(4.9798 -9.4683e-16 0)
(4.9798 -4.4341e-15 0)
(4.9798 -1.1853e-13 0)
(4.9798 -1.22995e-13 0)
(4.9798 -1.10719e-13 0)
(4.9798 -3.76165e-14 0)
(4.9798 -4.6378e-14 0)
(4.9798 -5.35626e-14 0)
(4.9798 -1.05842e-13 0)
(4.9798 -1.60298e-13 0)
(4.9798 -1.48782e-13 0)
(4.9798 -1.77044e-13 0)
(4.9798 -1.44695e-13 0)
(4.9798 -1.3423e-13 0)
(4.9798 -2.25039e-15 0)
(4.9798 -9.23493e-16 0)
(4.9798 -4.02069e-15 0)
(4.9798 -3.44459e-14 0)
(4.9798 -2.07636e-14 0)
(4.9798 5.01087e-15 0)
(4.9798 1.48359e-15 0)
(4.9798 -6.23108e-15 0)
(4.9798 3.87034e-14 0)
(4.9798 5.16989e-14 0)
(4.9798 5.52162e-14 0)
(4.9798 5.08188e-14 0)
(4.9798 -4.71815e-14 0)
(4.9798 -7.70233e-14 0)
(4.9798 -9.56065e-14 0)
(4.9798 -1.02551e-13 0)
(4.9798 -8.98355e-14 0)
(4.9798 -9.24826e-14 0)
(4.9798 -1.01131e-13 0)
(4.9798 -9.13491e-14 0)
(4.9798 -7.92404e-14 0)
(4.9798 -8.58915e-14 0)
(4.9798 -9.96339e-14 0)
(4.9798 -1.01774e-13 0)
(4.9798 -7.49796e-15 0)
(4.9798 7.41528e-14 0)
(4.9798 9.42329e-14 0)
(4.9798 8.73518e-14 0)
(4.9798 -1.43858e-14 0)
(4.9798 -3.97635e-14 0)
(4.9798 -6.64648e-14 0)
(4.9798 -6.34476e-14 0)
(4.9798 -9.21492e-15 0)
(4.9798 8.88153e-15 0)
(4.9798 2.27639e-14 0)
(4.9798 -6.40444e-15 0)
(4.9798 -1.06632e-13 0)
(4.9798 -1.39347e-13 0)
(4.9798 -1.46889e-13 0)
(4.9798 -1.1401e-13 0)
(4.9798 -9.57499e-15 0)
(4.9798 -1.78131e-14 0)