/*--------------------------------*- C++ -*----------------------------------*\
| =========                 |                                                 |
| \\      /  F ield         | OpenFOAM: The Open Source CFD Toolbox           |
|  \\    /   O peration     | Version:  2206                                  |
|   \\  /    A nd           | Website:  www.openfoam.com                      |
|    \\/     M anipulation  |                                                 |
\*---------------------------------------------------------------------------*/
FoamFile
{
    version     2.0;
    format      ascii;
    arch        "LSB;label=32;scalar=64";
    class       volScalarField;
    location    "0.06";
    object      p;
}
// * * * * * * * * * * * * * * * * * * * * * * * * * * * * * * * * * * * * * //

dimensions      [1 -1 -2 0 0 0 0];

internalField   nonuniform List<scalar> 
4800
(
1
1
1
1
1
1
1
1
1
1
1
1
1
1
1
1
1
1
1
1
1
1
1
1
1
1
1
1
1
1
1
1
1
1
1
1
1
1
1
1
1
1
1
1
1
1
1
1
1
1
1
1
1
1
1
1
1
1
1
1
1
1
1
1
1
1
1
1
1
1
1
1
1
1
1
1
1
1
1
1
1
1
1
1
1
1
1
1
1
1
1
1
1
1
1
1
1
1
1
1
1
1
1
1
1
1
1
1
1
1
1
1
1
1
1
1
1
1
1
1
1
1
1
1
1
1
1
1
1
1
1
1
1
1
1
1
1
1
1
1
1
1
1
1
1
1
1
1
1
1
1
1
1
1
1
1
1
1
1
1
1
1
1
1
1
1
1
1
1
1
1
1
1
1
1
1
1
1
1
1
1
1
1
1
1
1
1
1
1
1
1
1
1
1
1
1
1
1
1
1
1
1
1
1
1
1
1
1
1
1
1
1
1
1
1
1
1
1
1
1
1
1
1
1
1
1
1
1
1
1
1
1
1
1
1
1
1
1
1
1
1
1
1
1
1
1
1
1
1
1
1
1
1
1
1
1
1
1
1
1
1
1
1
1
1
1
1
1
1
1
1
1
1
1
1
1
1
1
1
1
1
1
1
1
1
1
1
1
1
1
1
1
1
1
1
1
1
1
1
1
1
1
1
1
1
1
1
1
1
1
1
1
1
1
1
1
1
1
1
1
1
1
1
1
1
1
1
1
1
1
1
1
1
1
1
1
1
1
1
1
1
1
1
1
1
1
1
1
1
1
1
1
1
1
1
1
1
1
1
1
1
1
1
1
1
1
1
1
1
1
1
1
1
1
1
1
1
1
1
1
1
1
1
1
1
1
1
1
1
1
1
1
1
1
1
1
1
1
1
1
1
1
1
1
1
1
1
1
1
1
1
1
1
1
1
1
1
1
1
1
1
1
1
1
1
1
1
1
1
1
1
1
1
1
1
1
1
1
1
1
1
1
1
1
1
1
1
1
1
1
1
1
1
1
1
1
1
1
1
1
1
1
1
1
1
1
1
1
1
1
1
1
1
1
1
1
1
1
1
1
1
1
1
1
1
1
1
1
1
1
1
1
1
1
1
1
1
1
1
1
1
1
1
1
1
1
1
1
1
1
1
1
1
1
1
1
1
1
1
1
1
1
1
1
1
1
1
1
1
1
1
1
1
1
1
1
1
1
1
1
1
1
1
1
1
1
1
1
1
1
1
1
1
1
1
1
1
1
1
1
1
1
1
1
1
1
1
1
1
1
1
1
1
1
1
1
1
1
1
1
1
1
1
1
1
1
1
1
1
1
1
1
1
1
1
1
1
1
1
1
1
1
1
1
1
1
1
1
1
1
1
1
1
1
1
1
1
1
1
1
1
1
1
1
1
1
1
1
1
1
1
1
1
1
1
1
1
1
1
1
1
1
1
1
1
1
1
1
1
1
1
1
1
1
1
1
1
1
1
1
1
1
1
1
1
1
1
1
1
1
1
1
1
1
1
1
1
1
1
1
1
1
1
1
1
1
1
1
1
1
1
1
1
1
1
1
1
1
1
1
1
1
1
1
1
1
1
1
1
1
1
1
1
1
1
1
1
1
1
1
1
1
1
1
1
1
1
1
1
1
1
1
1
1
1
1
1
1
1
1
1
1
1
1
1
1
1
1
1
1
1
1
1
1
1
1
1
1
1
1
1
1
1
1
1
1
1
1
1
1
1
1
1
1
1
1
1
1
1
1
1
1
1
1
1
1
1
1
1
1
1
1
1
1
1
1
1
1
1
1
1
1
1
1
1
1
1
1
1
1
1
1
1
1
1
1
1
1
1
1
1
1
1
1
1
1
1
1
1
1
1
1
1
1
1
1
1
1
1
1
1
1
1
1
1
1
1
1
1
1
1
1
1
1
1
1
1
1
1
1
1
1
1
1
1
1
1
1
1
1
1
1
1
1
1
1
1
1
1
1
1
1
1
1
1
1
1
1
1
1
1
1
1
1
1
1
1
1
1
1
1
1
1
1
1
1
1
1
1
1
1
1
1
1
1
1
1
1
1
1
1
1
1
1
1
1
1
1
1
1
1
1
1
1
1
1
1
1
1
1
1
1
1
1
1
1
1
1
1
1
1
1
1
1
1
1
1
1
1
1
1
1
1
1
1
1
1
1
1
1
1
1
1
1
1
1
1
1
1
1
1
1
1
1
1
1
1
1
1
1
1
1
1
1
1
1
1
1
1
1
1
1
1
1
1
1
1
1
1
1
1
1
1
1
1
1
1
1
1
1
1
1
1
1
1
1
1
1
1
1
1
1
1
1
1
1
1
1
1
1
1
1
1
1
1
1
1
1
1
1
1
1
1
1
1
1
1
1
1
1
1
1
1
1
1
1
1
1
1
1
1
1
1
1
1
1
1
1
1
1
1
1
1
1
1
1
1
1
1
1
1
1
1
1
1
1
1
1
1
1
1
1
1
1
1
1
1
1
1
1
1
1
1
1
1
1
1
1
1
1
1
1
1
1
1
1
1
1
1
1
1
1
1
1
1
1
1
1
1
1
1
1
1
1
1
1
1
1
1
1
1
1
1
1
1
1
1
1
1
1
1
1
1
1
1
1
1
1
1
1
1
1
1
1
1
1
1
1
1
1
1
1
1
1
1
1
1
1
1
1
1
1
1
1
1
1
1
1
1
1
1
1
1
1
1
1
1
1
1
1
1
1
1
1
1
1
1
1
1
1
1
1
1
1
1
1
1
1
1
1
1
1
1
1
1
1
1
1
1
1
1
1
1
1
1
1
1
1
1
1
1
1
1
1
1
1
1
1
1
1
1
1
1
1
1
1
1
1
1
1
1
1
1
1
1
1
1
1
1
1
1
1
1
1
1
1
1
1
1
1
1
1
1
1
1
1
1
1
1
1
1
1
1
1
1
1
1
1
1
1
1
1
1
1
1
1
1
1
1
1
1
1
1
1
1
1
1
1
1
1
1
1
1
1
1
1
1
1
1
1
1
1
1
1
1
1
1
1
1
1
1
1
1
1
1
1
1
1
1
1
1
1
1
1
1
1
1
1
1
1
1
1
1
1
1
1
1
1
1
1
1
1
1
1
1
1
1
1
1
1
1
1
1
1
1
1
1
1
1
1
1
1
1
1
1
1
1
1
1
1
1
1
1
1
1
1
1
1
1
1
1
1
1
1
1
1
1
1
1
1
1
1
1
1
1
1
1
1
1
1
1
1
1
1
1
1
1
1
1
1
1
1
1
1
1
1
1
1
1
1
1
1
1
1
1
1
1
1
1
1
1
1
1
1
1
1
1
1
1
1
1
1
1
1
1
1
1
1
1
1
1
1
1
1
1
1
1
1
1
1
1
1
1
1
1
1
1
1
1
1
1
1
1
1
1
1
1
1
1
1
1
1
1
1
1
1
1
1
1
1
1
1
1
1
1
1
1
1
1
1
1
1
1
1
1
1
1
1
1
1
1
1
1
1
1
1
1
1
1
1
1
1
1
1
1
1
1
1
1
1
1
1
1
1
1
1
1
1
1
1
1
1
1
1
1
1
1
1
1
1
1
1
1
1
1
1
1
1
1
1
1.27523
1.6942
2.19907
2.67967
3.14791
3.606
3.874
4.11473
4.11296
4.01209
3.74914
3.41476
3.18155
3.07576
3.01685
2.98749
2.99321
3.01585
3.03775
3.05304
3.06726
3.07565
3.08479
3.09714
3.1097
3.11187
3.10901
3.10465
3.09624
3.07645
3.04459
3.0065
2.96964
2.93576
2.91555
2.90695
2.89852
2.89185
2.88658
2.88104
2.87586
2.87249
2.86987
2.86794
2.86652
2.86653
2.86762
2.8662
2.86511
2.86671
2.86674
2.86649
2.86718
2.8686
2.87205
2.87743
2.88195
2.88499
2.8872
2.89038
2.89454
2.9
2.90846
2.92152
2.94138
2.96975
2.99777
3.00932
3.01028
3.01018
3.00999
3.00948
3.00875
3.00856
3.00856
3.00859
3.00871
3.00897
3.00924
3.00965
1.00584
1.03528
1.10218
1.25467
1.46597
1.77232
2.12789
2.4955
2.8432
3.06113
3.20169
3.26697
3.2754
3.26967
3.22279
3.173
3.12662
3.10111
3.06459
3.04606
3.05128
3.06056
3.07519
3.09441
3.1036
3.10278
3.09756
3.0901
3.07907
3.05764
3.02532
2.99094
2.95973
2.93004
2.91001
2.89988
2.89112
2.88441
2.8803
2.87625
2.87185
2.86803
2.86422
2.86007
2.85699
2.85536
2.85589
2.85571
2.85562
2.85894
2.8611
2.86164
2.86279
2.8663
2.87102
2.8752
2.8794
2.88303
2.88663
2.88998
2.8946
2.9012
2.91079
2.92564
2.94811
2.97766
3.00215
3.0098
3.01019
3.01004
3.00979
3.00943
3.00902
3.00891
3.00892
3.00896
3.00911
3.00932
3.0095
3.00973
0.999998
1.00003
1.00036
1.00265
1.01159
1.04373
1.13693
1.33639
1.72517
2.30554
2.93201
3.22965
3.45027
3.47361
3.44439
3.36565
3.26091
3.11519
3.0507
3.04688
3.05271
3.0726
3.09084
3.09215
3.09113
3.08691
3.08338
3.07793
3.06873
3.04985
3.01945
2.98578
2.95731
2.92985
2.90775
2.89919
2.89357
2.88793
2.88398
2.88015
2.87609
2.87212
2.86708
2.86136
2.8581
2.85791
2.85992
2.86337
2.86404
2.86328
2.86264
2.86207
2.8631
2.86567
2.87107
2.87752
2.8826
2.88639
2.88972
2.89335
2.89755
2.90311
2.91172
2.9262
2.95012
2.98196
3.00487
3.01012
3.01033
3.0103
3.01009
3.0097
3.0093
3.00921
3.00926
3.00935
3.00946
3.00956
3.00957
3.00952
1
1
0.999999
1
1
1.00005
1.00067
1.00467
1.02948
1.155
1.49873
2.06064
2.65158
3.12987
3.22319
3.22331
3.22502
3.2093
3.19142
3.17869
3.15034
3.12411
3.09544
3.07459
3.0666
3.06945
3.07691
3.07532
3.06613
3.04429
3.01045
2.97478
2.94693
2.92342
2.90552
2.8991
2.89484
2.88973
2.88482
2.87991
2.87548
2.87121
2.86552
2.85911
2.85519
2.8548
2.85659
2.86287
2.86672
2.86115
2.85851
2.85909
2.86176
2.86534
2.87024
2.87565
2.8804
2.88416
2.88776
2.89184
2.8969
2.9041
2.91458
2.93056
2.95582
2.98741
3.00703
3.01032
3.01048
3.01047
3.01026
3.00986
3.00954
3.00942
3.00933
3.0093
3.00927
3.00928
3.0092
3.00924
1
1
1
1
1
1
0.999999
1
1.00001
1.00081
1.01043
1.09018
1.32548
1.81984
2.41044
2.93068
3.228
3.30448
3.30602
3.29109
3.25359
3.15755
3.08852
3.07244
3.07586
3.08227
3.0833
3.0745
3.05767
3.03285
3.00161
2.96946
2.94147
2.91947
2.90598
2.89882
2.89142
2.88454
2.87895
2.87334
2.86978
2.86786
2.86538
2.86256
2.86056
2.85853
2.85801
2.86148
2.8667
2.86211
2.85806
2.85948
2.86307
2.86683
2.87032
2.87397
2.87862
2.88323
2.88742
2.89164
2.89682
2.90427
2.91549
2.93336
2.96065
2.99153
3.00844
3.01094
3.01126
3.01143
3.01114
3.01049
3.01021
3.01006
3.00973
3.00938
3.0091
3.00895
3.00885
3.00894
1
1
1
1
1
1
1
1
1
1
0.999995
1.00028
1.00426
1.04078
1.21853
1.60957
2.22454
2.68142
3.05146
3.16145
3.1571
3.17347
3.16349
3.13878
3.13328
3.12804
3.10796
3.07745
3.04406
3.01476
2.98767
2.96696
2.9427
2.92286
2.91018
2.89844
2.88633
2.87665
2.87028
2.86598
2.86545
2.86677
2.86437
2.86247
2.86031
2.85745
2.85567
2.85781
2.8631
2.86165
2.85912
2.86113
2.86474
2.86823
2.87136
2.87396
2.87815
2.8839
2.88934
2.89424
2.8997
2.90743
2.91937
2.93845
2.96674
2.9957
3.00812
3.00945
3.00959
3.00967
3.00954
3.00892
3.00882
3.00904
3.00929
3.00956
3.00986
3.00999
3.01008
3.00994
1
1
1
1
1
1
1
1
1
1
1
1
0.999996
1.00005
1.00218
1.0208
1.13966
1.47644
1.9852
2.53925
2.88489
3.1627
3.21286
3.20464
3.18302
3.14278
3.08919
3.0617
3.03883
3.01651
2.99476
2.959
2.93128
2.91709
2.90535
2.89368
2.87756
2.86799
2.86284
2.86297
2.86539
2.86249
2.85876
2.85565
2.85262
2.85108
2.85168
2.85246
2.85673
2.86014
2.86018
2.86232
2.86563
2.86888
2.87131
2.87372
2.87758
2.88407
2.89132
2.8982
2.90457
2.91234
2.92481
2.94544
2.97564
3.0014
3.00861
3.00901
3.00904
3.00887
3.00832
3.00752
3.00745
3.00781
3.00838
3.00898
3.00958
3.01001
3.01029
3.01053
1
1
1
1
1
1
1
1
1
1
1
1
1
1
0.999998
1.00001
1.00098
1.01364
1.07792
1.34623
1.80898
2.4058
2.78028
3.00042
3.07757
3.07107
3.0834
3.08017
3.06906
3.04221
3.00703
2.9563
2.91843
2.89336
2.87887
2.87189
2.87559
2.87677
2.87447
2.8716
2.86601
2.85866
2.85192
2.84484
2.84167
2.84022
2.84224
2.84339
2.84723
2.85397
2.85666
2.85854
2.8613
2.86476
2.86774
2.87113
2.87642
2.88299
2.88992
2.89671
2.90466
2.91496
2.92898
2.95165
2.9831
3.00512
3.00957
3.00973
3.00974
3.00935
3.00837
3.00754
3.00749
3.00778
3.00828
3.00878
3.00917
3.00936
3.00944
3.00974
1
1
1
1
1
1
1
1
1
1
1
1
1
1
1
1
1
1
1.00034
1.00717
1.05868
1.23795
1.68875
2.23181
2.77453
2.99411
3.10892
3.11177
3.09251
3.05245
2.9845
2.93053
2.89539
2.88367
2.8792
2.87683
2.87282
2.8679
2.86021
2.85532
2.85007
2.84523
2.84167
2.8372
2.83375
2.83974
2.84675
2.84868
2.85101
2.85757
2.86256
2.86272
2.86463
2.86754
2.86947
2.87151
2.87448
2.87971
2.88642
2.8938
2.9024
2.9138
2.93127
2.95827
2.98973
3.00789
3.01114
3.01121
3.01107
3.01057
3.00966
3.00875
3.00831
3.00826
3.00836
3.00836
3.00842
3.00851
3.00858
3.00879
1
1
1
1
1
1
1
1
1
1
1
1
1
1
1
1
1
1
1
0.999999
1.00022
1.00374
1.04076
1.19381
1.58027
2.1274
2.6916
2.94608
2.98687
2.9736
2.95708
2.93237
2.91789
2.90735
2.89105
2.87441
2.86091
2.84882
2.83868
2.83238
2.82721
2.82769
2.83513
2.84014
2.84285
2.84319
2.84459
2.84507
2.84589
2.85132
2.85892
2.8596
2.86154
2.86507
2.86745
2.86885
2.87098
2.87546
2.88253
2.89078
2.90048
2.91433
2.93669
2.96762
2.99732
3.01121
3.01286
3.01247
3.01159
3.01057
3.00955
3.0087
3.00814
3.00782
3.00755
3.00743
3.00744
3.00753
3.00768
3.00821
1
1
1
1
1
1
1
1
1
1
1
1
1
1
1
1
1
1
1
1
1
0.999998
1.00012
1.00286
1.02617
1.16961
1.51277
2.0407
2.53165
2.87757
2.92701
2.94782
2.93239
2.90376
2.87079
2.84903
2.83959
2.8295
2.8277
2.82908
2.83185
2.83634
2.84068
2.84178
2.83858
2.83377
2.83392
2.83404
2.83549
2.84113
2.85068
2.85545
2.85917
2.86376
2.86917
2.87297
2.87603
2.88074
2.88782
2.89681
2.9087
2.92502
2.94787
2.97679
3.00146
3.01071
3.01129
3.01089
3.01001
3.009
3.00831
3.0078
3.00771
3.00791
3.00799
3.008
3.00795
3.00808
3.00829
3.00856
1
1
1
1
1
1
1
1
1
1
1
1
1
1
1
1
1
1
1
1
1
1
1
0.999998
1.00006
1.00242
1.02114
1.14424
1.43866
1.94904
2.37587
2.69679
2.8079
2.82381
2.79609
2.80075
2.82954
2.84295
2.85144
2.85893
2.85049
2.83715
2.83091
2.82864
2.82101
2.81569
2.81631
2.81864
2.82344
2.83156
2.84074
2.85207
2.8584
2.86269
2.86726
2.87098
2.87553
2.88364
2.89271
2.904
2.91741
2.93376
2.95573
2.98334
3.00369
3.00854
3.00872
3.0088
3.00868
3.00837
3.00846
3.00879
3.00918
3.00969
3.00996
3.00995
3.00957
3.00915
3.00877
3.00836
1
1
1
1
1
1
1
1
1
1
1
1
1
1
1
1
1
1
1
1
1
1
1
1
1
0.999998
1.00005
1.00186
1.01767
1.10729
1.37875
1.77968
2.1872
2.53982
2.67732
2.77117
2.82221
2.81831
2.82617
2.83827
2.83189
2.8087
2.79706
2.79563
2.79748
2.80349
2.81435
2.82543
2.83515
2.84403
2.84676
2.8503
2.85241
2.85328
2.85667
2.86137
2.86825
2.87774
2.88932
2.90271
2.91834
2.93834
2.96485
2.99316
3.00866
3.01109
3.01126
3.01126
3.01073
3.0096
3.00897
3.00872
3.00875
3.00886
3.00888
3.00887
3.00876
3.00863
3.00842
3.00815
1
1
1
1
1
1
1
1
1
1
1
1
1
1
1
1
1
1
1
1
1
1
1
1
1
1
1
0.999999
1.00004
1.00118
1.0132
1.07404
1.2561
1.56094
1.9594
2.28135
2.53385
2.61603
2.68427
2.75509
2.75001
2.76698
2.78314
2.80157
2.82204
2.83223
2.83689
2.83842
2.83973
2.83805
2.83497
2.83741
2.8389
2.84128
2.84547
2.85042
2.85868
2.87051
2.88496
2.90023
2.91999
2.94639
2.97838
3.0038
3.01277
3.01331
3.01284
3.01192
3.01067
3.00891
3.00772
3.00718
3.00698
3.00689
3.00689
3.00722
3.00774
3.0082
3.00863
3.00897
1
1
1
1
1
1
1
1
1
1
1
1
1
1
1
1
1
1
1
1
1
1
1
1
1
1
1
1
1
0.999999
1.00002
1.00059
1.00647
1.0356
1.14257
1.34209
1.65356
2.01674
2.28502
2.52701
2.65395
2.75811
2.78865
2.80098
2.82247
2.82048
2.81799
2.81314
2.80822
2.8089
2.80957
2.81985
2.82962
2.84092
2.85291
2.86004
2.8703
2.88251
2.89444
2.91135
2.93408
2.96025
2.98783
3.00562
3.00959
3.00964
3.00896
3.00781
3.00668
3.00582
3.00587
3.00657
3.00755
3.00796
3.00835
3.0087
3.009
3.00927
3.00924
3.00899
1
1
1
1
1
1
1
1
1
1
1
1
1
1
1
1
1
1
1
1
1
1
1
1
1
1
1
1
1
1
1
1
1
1.00017
1.00207
1.01257
1.05368
1.17424
1.39178
1.68107
2.01323
2.31019
2.50325
2.60342
2.71523
2.712
2.71959
2.74886
2.77192
2.79906
2.82152
2.84288
2.85795
2.86262
2.87256
2.87764
2.88653
2.89707
2.90783
2.92214
2.94395
2.97036
2.99044
3.00011
3.0022
3.00255
3.00284
3.00282
3.00332
3.00497
3.00645
3.00786
3.00916
3.00989
3.00995
3.0097
3.00931
3.00903
3.00857
3.00798
1
1
1
1
1
1
1
1
1
1
1
1
1
1
1
1
1
1
1
1
1
1
1
1
1
1
1
1
1
1
1
1
1
1
1
1.00002
1.00037
1.00331
1.01739
1.06252
1.18762
1.39055
1.70413
2.00111
2.29212
2.50836
2.64405
2.74918
2.77205
2.81464
2.82839
2.83586
2.85094
2.8479
2.85904
2.86128
2.87132
2.88711
2.90284
2.92319
2.94757
2.97276
2.99241
3.00135
3.0043
3.00603
3.00766
3.0076
3.007
3.00744
3.00749
3.00695
3.00681
3.00742
3.00752
3.0073
3.00709
3.00734
3.00785
3.00824
1
1
1
1
1
1
1
1
1
1
1
1
1
1
1
1
1
1
1
1
1
1
1
1
1
1
1
1
1
1
1
1
1
1
1
1
1
1
1.00004
1.00051
1.00386
1.01808
1.06651
1.18951
1.38641
1.69242
1.9875
2.28528
2.47016
2.61757
2.69445
2.71986
2.76991
2.77129
2.80157
2.83188
2.85728
2.88643
2.91417
2.94518
2.9738
2.9996
3.01481
3.01746
3.01633
3.01346
3.0119
3.00872
3.00499
3.00334
3.00248
3.00143
3.0016
3.00228
3.00325
3.00428
3.00518
3.00616
3.00766
3.00927
1
1
1
1
1
1
1
1
1
1
1
1
1
1
1
1
1
1
1
1
1
1
1
1
1
1
1
1
1
1
1
1
1
1
1
1
1
1
1
1
1
1.00005
1.00058
1.00406
1.01829
1.06695
1.18154
1.37399
1.66719
1.94817
2.25446
2.44854
2.6245
2.73
2.79246
2.84249
2.87007
2.90501
2.92956
2.95854
2.98236
2.99962
3.00603
3.00755
3.00176
2.99198
2.9947
2.9949
2.99286
2.99428
2.9967
2.99926
3.0015
3.00331
3.00541
3.00761
3.00806
3.00749
3.00711
3.00761
1
1
1
1
1
1
1
1
1
1
1
1
1
1
1
1
1
1
1
1
1
1
1
1
1
1
1
1
1
1
1
1
1
1
1
1
1
1
1
1
1
1
1
1
1.00006
1.0006
1.00383
1.017
1.06102
1.16286
1.34417
1.61499
1.88929
2.1963
2.40267
2.60411
2.6949
2.79289
2.84013
2.88363
2.91564
2.9367
2.94293
2.96661
2.97135
2.97438
2.98458
2.99098
2.99917
3.00732
3.00773
3.00969
3.00991
3.0086
3.00721
3.00669
3.00585
3.00494
3.00333
3.00398
1
1
1
1
1
1
1
1
1
1
1
1
1
1
1
1
1
1
1
1
1
1
1
1
1
1
1
1
1
1
1
1
1
1
1
1
1
1
1
1
1
1
1
1
1
1
1
1.00005
1.00051
1.00314
1.01428
1.05067
1.13447
1.29259
1.5239
1.79433
2.08597
2.31655
2.53446
2.67895
2.79406
2.89442
2.93612
2.96416
2.98723
2.99154
3.00457
3.00812
3.00841
3.00808
3.00171
3.00048
3.00059
2.99681
2.99552
2.99675
2.9978
2.99984
3.00097
3.003
1
1
1
1
1
1
1
1
1
1
1
1
1
1
1
1
1
1
1
1
1
1
1
1
1
1
1
1
1
1
1
1
1
1
1
1
1
1
1
1
1
1
1
1
1
1
1
1
1
1
1.00004
1.00036
1.00218
1.0099
1.0341
1.09325
1.20974
1.38547
1.61557
1.86952
2.12258
2.34311
2.56407
2.68054
2.81794
2.86648
2.91037
2.93625
2.94312
2.95671
2.95211
2.96331
2.97621
2.98503
2.98991
2.9944
3.00286
3.00579
3.00773
3.00747
1
1
1
1
1
1
1
1
1
1
1
1
1
1
1
1
1
1
1
1
1
1
1
1
1
1
1
1
1
1
1
1
1
1
1
1
1
1
1
1
1
1
1
1
1
1
1
1
1
1
1
1
1
1.00002
1.00017
1.00104
1.00474
1.01627
1.04595
1.10706
1.21318
1.37203
1.58552
1.84562
2.10708
2.3785
2.5616
2.7405
2.8252
2.91869
2.95322
2.97446
2.98964
3.00197
3.00642
3.00876
3.00521
3.00163
3.00184
2.99994
1
1
1
1
1
1
1
1
1
1
1
1
1
1
1
1
1
1
1
1
1
1
1
1
1
1
1
1
1
1
1
1
1
1
1
1
1
1
1
1
1
1
1
1
1
1
1
1
1
1
1
1
1
1
1
1
1
1.00004
1.00027
1.00122
1.00455
1.0143
1.03944
1.09682
1.20722
1.39023
1.63745
1.92132
2.22685
2.46001
2.68547
2.79585
2.88838
2.92224
2.94907
2.97082
2.96557
2.97164
2.97935
2.98624
1
1
1
1
1
1
1
1
1
1
1
1
1
1
1
1
1
1
1
1
1
1
1
1
1
1
1
1
1
1
1
1
1
1
1
1
1
1
1
1
1
1
1
1
1
1
1
1
1
1
1
1
1
1
1
1
1
1
1
1
1
1.00003
1.0002
1.00104
1.00445
1.01629
1.04971
1.128
1.27974
1.50698
1.80505
2.12744
2.40919
2.64821
2.7881
2.8923
2.94615
2.97773
2.99611
2.99695
1
1
1
1
1
1
1
1
1
1
1
1
1
1
1
1
1
1
1
1
1
1
1
1
1
1
1
1
1
1
1
1
1
1
1
1
1
1
1
1
1
1
1
1
1
1
1
1
1
1
1
1
1
1
1
1
1
1
1
1
1
1
1
1
1
1.00004
1.00032
1.00185
1.00846
1.03028
1.09103
1.22315
1.44833
1.756
2.09986
2.40605
2.65959
2.8145
2.9027
2.9483
1
1
1
1
1
1
1
1
1
1
1
1
1
1
1
1
1
1
1
1
1
1
1
1
1
1
1
1
1
1
1
1
1
1
1
1
1
1
1
1
1
1
1
1
1
1
1
1
1
1
1
1
1
1
1
1
1
1
1
1
1
1
1
1
1
1
1
1
1.00001
1.00014
1.00102
1.00559
1.02372
1.0795
1.21285
1.4497
1.78788
2.16044
2.46832
2.76841
1
1
1
1
1
1
1
1
1
1
1
1
1
1
1
1
1
1
1
1
1
1
1
1
1
1
1
1
1
1
1
1
1
1
1
1
1
1
1
1
1
1
1
1
1
1
1
1
1
1
1
1
1
1
1
1
1
1
1
1
1
1
1
1
1
1
1
1
1
1
1
1.00001
1.00009
1.00082
1.00531
1.02489
1.09032
1.25249
1.51188
2.09815
1
1
1
1
1
1
1
1
1
1
1
1
1
1
1
1
1
1
1
1
1
1
1
1
1
1
1
1
1
1
1
1
1
1
1
1
1
1
1
1
1
1
1
1
1
1
1
1
1
1
1
1
1
1
1
1
1
1
1
1
1
1
1
1
1
1
1
1
1
1
1
1
1
1
1.00001
1.0001
1.00109
1.00782
1.03351
1.2608
1
1
1
1
1
1
1
1
1
1
1
1
1
1
1
1
1
1
1
1
1
1
1
1
1
1
1
1
1
1
1
1
1
1
1
1
1
1
1
1
1
1
1
1
1
1
1
1
1
1
1
1
1
1
1
1
1
1
1
1
1
1
1
1
1
1
1
1
1
1
1
1
1
1
1
1
1
1.00001
1.00019
1.01202
1
1
1
1
1
1
1
1
1
1
1
1
1
1
1
1
1
1
1
1
1
1
1
1
1
1
1
1
1
1
1
1
1
1
1
1
1
1
1
1
1
1
1
1
1
1
1
1
1
1
1
1
1
1
1
1
1
1
1
1
1
1
1
1
1
1
1
1
1
1
1
1
1
1
1
1
1
1
1
1.00007
1
1
1
1
1
1
1
1
1
1
1
1
1
1
1
1
1
1
1
1
1
1
1
1
1
1
1
1
1
1
1
1
1
1
1
1
1
1
1
1
1
1
1
1
1
1
1
1
1
1
1
1
1
1
1
1
1
1
1
1
1
1
1
1
1
1
1
1
1
1
1
1
1
1
1
1
1
1
1
1
1
1
1
1
1
1
1
1
1
1
1
1
1
1
1
1
1
1
1
1
1
1
1
1
1
1
1
1
1
1
1
1
1
1
1
1
1
1
1
1
1
1
1
1
1
1
1
1
1
1
1
1
1
1
1
1
1
1
1
1
1
1
1
1
1
1
1
1
1
1
1
1
1
1
1
1
1
1
1
1
1
1
1
1
1
1
1
1
1
1
1
1
1
1
1
1
1
1
1
1
1
1
1
1
1
1
1
1
1
1
1
1
1
1
1
1
1
1
1
1
1
1
1
1
1
1
1
1
1
1
1
1
1
1
1
1
1
1
1
1
1
1
1
1
1
1
1
1
1
1
1
1
1
1
1
1
1
1
1
1
1
1
1
1
1
1
1
1
1
1
1
1
1
1
1
1
1
1
1
1
1
1
1
1
1
1
1
1
1
1
1
1
1
1
1
1
1
1
1
1
1
1
1
1
1
1
1
1
1
1
1
1
1
1
1
1
1
1
1
1
1
1
1
1
1
1
1
1
1
1
1
1
1
1
1
1
1
1
1
1
1
1
1
1
1
1
1
1
1
1
1
1
1
1
1
1
1
1
1
1
1
1
1
1
1
1
1
1
1
1
1
1
1
1
1
1
1
1
1
1
1
1
1
1
1
1
1
1
1
1
1
1
1
1
1
1
1
1
1
1
1
1
1
1
1
1
1
1
1
1
1
1
1
1
1
1
1
1
1
1
1
1
1
1
1
1
1
1
1
1
1
1
1
1
1
1
1
1
1
1
1
1
1
1
1
1
1
1
1
1
1
1
1
1
1
1
1
1
1
1
1
1
1
1
1
1
1
1
1
1
1
1
1
1
1
1
1
1
1
1
1
1
1
1
1
1
1
1
1
1
1
1
1
1
1
1
1
1
1
1
1
1
1
1
1
1
1
1
1
1
1
1
1
1
1
1
1
1
1
1
1
1
1
1
1
1
1
1
1
1
1
1
1
1
1
1
1
1
1
1
1
1
1
1
1
1
1
1
1
1
1
1
1
1
1
1
1
1
1
1
1
1
1
1
1
1
1
1
1
1
1
1
1
1
1
1
1
1
1
1
1
1
1
1
1
1
1
1
1
1
1
1
1
1
1
1
1
1
1
1
1
1
1
1
1
1
1
1
1
1
1
1
1
1
1
1
1
1
1
1
1
1
1
1
1
1
1
1
1
1
1
1
1
1
1
1
1
1
1
1
1
1
1
1
1
1
1
1
1
1
1
1
1
1
1
1
1
1
1
1
1
1
1
1
1
1
1
1
1
1
1
1
1
1
1
1
1
1
1
1
1
1
1
1
1
1
1
1
1
1
1
1
1
1
1
1
1
1
1
1
1
1
1
1
1
1
1
1
1
1
1
1
1
1
1
1
1
1
1
1
1
1
1
1
1
1
1
1
1
1
1
1
1
1
1
1
1
1
1
1
)
;

boundaryField
{
    inlet
    {
        type            fixedValue;
        value           uniform 1;
    }
    outlet
    {
        type            zeroGradient;
    }
    bottom
    {
        type            symmetryPlane;
    }
    top
    {
        type            symmetryPlane;
    }
    obstacle
    {
        type            zeroGradient;
    }
    defaultFaces
    {
        type            empty;
    }
}


// ************************************************************************* //
