/*--------------------------------*- C++ -*----------------------------------*\
| =========                 |                                                 |
| \\      /  F ield         | OpenFOAM: The Open Source CFD Toolbox           |
|  \\    /   O peration     | Version:  2206                                  |
|   \\  /    A nd           | Website:  www.openfoam.com                      |
|    \\/     M anipulation  |                                                 |
\*---------------------------------------------------------------------------*/
FoamFile
{
    version     2.0;
    format      ascii;
    arch        "LSB;label=32;scalar=64";
    class       volScalarField;
    location    "0.06";
    object      T;
}
// * * * * * * * * * * * * * * * * * * * * * * * * * * * * * * * * * * * * * //

dimensions      [0 0 0 1 0 0 0];

internalField   nonuniform List<scalar> 
75
(
1
1
1
1
1
1
1
1
1
1
1
1
1
1
1
1
1
1
1
1
1
1
1
1
1
1.07389
1.17671
1.28907
1.40713
1.52839
1.63906
1.72771
1.78295
1.82537
1.84315
0.999722
1.00203
1.01463
1.04959
1.11548
1.21276
1.31066
1.39891
1.45445
1.54053
0.999992
0.999992
0.999851
1.00036
1.00026
1.00443
1.02523
1.08842
1.17647
1.39556
1
0.999999
0.999983
0.999984
0.999981
1
0.999806
1.00145
1.00523
1.08458
1
1
1
0.999998
0.999994
0.999995
0.999966
0.999982
0.999936
1.002
)
;

boundaryField
{
    inlet
    {
        type            fixedValue;
        value           uniform 1;
    }
    outlet
    {
        type            zeroGradient;
    }
    bottom
    {
        type            symmetryPlane;
    }
    top
    {
        type            symmetryPlane;
    }
    obstacle
    {
        type            zeroGradient;
    }
    defaultFaces
    {
        type            empty;
    }
}


// ************************************************************************* //
