/*--------------------------------*- C++ -*----------------------------------*\
| =========                 |                                                 |
| \\      /  F ield         | OpenFOAM: The Open Source CFD Toolbox           |
|  \\    /   O peration     | Version:  2206                                  |
|   \\  /    A nd           | Website:  www.openfoam.com                      |
|    \\/     M anipulation  |                                                 |
\*---------------------------------------------------------------------------*/
FoamFile
{
    version     2.0;
    format      ascii;
    arch        "LSB;label=32;scalar=64";
    class       volVectorField;
    location    "0.06";
    object      U;
}
// * * * * * * * * * * * * * * * * * * * * * * * * * * * * * * * * * * * * * //

dimensions      [0 1 -1 0 0 0 0];

internalField   nonuniform List<vector> 
75
(
(4.77778 -4.34742e-15 0)
(4.77778 -4.3345e-15 0)
(4.77778 1.29189e-17 0)
(4.77778 -1.87949e-16 0)
(4.77778 -6.41777e-16 0)
(4.77778 -3.98819e-16 0)
(4.77778 -5.51762e-15 0)
(4.77778 -5.34134e-15 0)
(4.77778 -5.16923e-15 0)
(4.77778 -4.53562e-15 0)
(4.77778 -4.33658e-15 0)
(4.77778 -4.24115e-15 0)
(4.77778 -8.0168e-15 0)
(4.77778 -7.44879e-15 0)
(4.77778 -1.1171e-15 0)
(4.77778 -3.97527e-15 0)
(4.77778 -6.19274e-16 0)
(4.77778 3.07595e-15 0)
(4.77778 6.63656e-15 0)
(4.77778 1.243e-14 0)
(4.77778 3.97527e-15 0)
(4.77778 3.73606e-15 0)
(4.77778 6.47403e-15 0)
(4.77778 1.29893e-14 0)
(4.77778 1.29268e-14 0)
(4.74151 0.011429 0)
(4.68663 0.0610022 0)
(4.62769 0.137949 0)
(4.5643 0.237473 0)
(4.50085 0.346141 0)
(4.43681 0.488251 0)
(4.40327 0.608625 0)
(4.37902 0.752218 0)
(4.40228 0.815119 0)
(4.39514 0.970271 0)
(4.77791 -0.000386146 0)
(4.77571 0.00259581 0)
(4.76446 0.0253197 0)
(4.73397 0.092547 0)
(4.67717 0.227297 0)
(4.58486 0.456232 0)
(4.49716 0.722927 0)
(4.40033 1.02516 0)
(4.37036 1.23396 0)
(4.30003 1.4892 0)
(4.77778 -1.91802e-05 0)
(4.77779 -1.98297e-05 0)
(4.7779 -0.000254922 0)
(4.77752 0.000591486 0)
(4.77753 0.000944294 0)
(4.77489 0.00704632 0)
(4.76375 0.0390446 0)
(4.73613 0.145912 0)
(4.72117 0.279571 0)
(4.68188 0.668822 0)
(4.77778 1.17354e-07 0)
(4.77778 -1.21316e-06 0)
(4.77779 -3.63699e-05 0)
(4.77779 -3.50706e-05 0)
(4.77779 -4.04282e-05 0)
(4.77777 1.81881e-06 0)
(4.77785 -0.000403018 0)
(4.77684 0.00327522 0)
(4.77627 0.00906075 0)
(4.76303 0.150717 0)
(4.77778 4.25466e-09 0)
(4.77778 3.05925e-08 0)
(4.77778 -1.11837e-07 0)
(4.77778 -4.32171e-06 0)
(4.77778 -1.07508e-05 0)
(4.77778 -8.52396e-06 0)
(4.77779 -5.98269e-05 0)
(4.77778 -2.60367e-05 0)
(4.77778 -8.23152e-05 0)
(4.77726 0.00327968 0)
)
;

boundaryField
{
    inlet
    {
        type            fixedValue;
        value           uniform (4.77778 0 0);
    }
    outlet
    {
        type            zeroGradient;
    }
    bottom
    {
        type            symmetryPlane;
    }
    top
    {
        type            symmetryPlane;
    }
    obstacle
    {
        type            slip;
    }
    defaultFaces
    {
        type            empty;
    }
}


// ************************************************************************* //
