/*--------------------------------*- C++ -*----------------------------------*\
| =========                 |                                                 |
| \\      /  F ield         | OpenFOAM: The Open Source CFD Toolbox           |
|  \\    /   O peration     | Version:  2206                                  |
|   \\  /    A nd           | Website:  www.openfoam.com                      |
|    \\/     M anipulation  |                                                 |
\*---------------------------------------------------------------------------*/
FoamFile
{
    version     2.0;
    format      ascii;
    arch        "LSB;label=32;scalar=64";
    class       volVectorField;
    location    "0.08";
    object      U;
}
// * * * * * * * * * * * * * * * * * * * * * * * * * * * * * * * * * * * * * //

dimensions      [0 1 -1 0 0 0 0];

internalField   nonuniform List<vector> 
4800
(
(4.33333 6.06771e-15 0)
(4.33333 1.28822e-14 0)
(4.33333 1.72897e-14 0)
(4.33333 6.91119e-15 0)
(4.33333 1.1652e-14 0)
(4.33333 5.78567e-14 0)
(4.33333 9.41796e-14 0)
(4.33333 1.05145e-13 0)
(4.33333 6.87719e-14 0)
(4.33333 6.24841e-14 0)
(4.33333 -1.70429e-14 0)
(4.33333 -5.68598e-14 0)
(4.33333 -5.07054e-14 0)
(4.33333 -4.86784e-14 0)
(4.33333 -1.77564e-14 0)
(4.33333 -2.37374e-14 0)
(4.33333 -4.54212e-14 0)
(4.33333 -3.13921e-14 0)
(4.33333 -4.56412e-15 0)
(4.33333 4.4421e-14 0)
(4.33333 7.3516e-14 0)
(4.33333 6.94253e-14 0)
(4.33333 5.72499e-14 0)
(4.33333 4.60013e-14 0)
(4.33333 3.77932e-14 0)
(4.33333 4.90385e-14 0)
(4.33333 4.86151e-14 0)
(4.33333 5.5713e-14 0)
(4.33333 6.64281e-14 0)
(4.33333 5.95136e-14 0)
(4.33333 8.74418e-14 0)
(4.33333 5.82201e-14 0)
(4.33333 -2.49343e-14 0)
(4.33333 -2.5021e-14 0)
(4.33333 -2.14737e-14 0)
(4.33333 -2.83949e-14 0)
(4.33333 -2.56244e-14 0)
(4.33333 -3.61129e-14 0)
(4.33333 -1.5236e-14 0)
(4.33333 6.97454e-15 0)
(4.33333 3.38392e-15 0)
(4.33333 3.6503e-14 0)
(4.33333 5.3886e-14 0)
(4.33333 3.57262e-14 0)
(4.33333 4.2384e-14 0)
(4.33333 7.89336e-14 0)
(4.33333 9.50931e-14 0)
(4.33333 8.22942e-14 0)
(4.33333 4.8455e-14 0)
(4.33333 3.34891e-14 0)
(4.33333 1.37057e-14 0)
(4.33333 -3.98035e-14 0)
(4.33333 -4.54512e-14 0)
(4.33333 -6.25375e-14 0)
(4.33333 -6.79151e-14 0)
(4.33333 -8.38411e-14 0)
(4.33333 -1.21831e-13 0)
(4.33333 -1.24888e-13 0)
(4.33333 -5.61997e-14 0)
(4.33333 -8.20908e-14 0)
(4.33333 -9.28927e-14 0)
(4.33333 -4.56712e-14 0)
(4.33333 -5.2209e-15 0)
(4.33333 2.54644e-14 0)
(4.33333 3.55095e-14 0)
(4.33333 1.15753e-14 0)
(4.33333 -3.92734e-15 0)
(4.33333 3.19388e-14 0)
(4.33333 1.00191e-13 0)
(4.33333 1.16967e-13 0)
(4.33333 1.02991e-13 0)
(4.33333 6.23974e-14 0)
(4.33333 5.10822e-14 0)
(4.33333 8.53214e-14 0)
(4.33333 7.78935e-14 0)
(4.33333 7.26392e-14 0)
(4.33333 -6.70449e-14 0)
(4.33333 -1.45225e-13 0)
(4.33333 -1.82615e-13 0)
(4.33333 -2.09812e-13 0)
(4.33333 -1.44158e-14 0)
(4.33333 2.23705e-15 0)
(4.33333 2.83182e-14 0)
(4.33333 5.73666e-14 0)
(4.33333 6.08672e-14 0)
(4.33333 -2.82182e-14 0)
(4.33333 -4.85817e-14 0)
(4.33333 -1.79531e-14 0)
(4.33333 1.80698e-14 0)
(4.33333 4.74082e-15 0)
(4.33333 -9.46497e-15 0)
(4.33333 -2.30406e-14 0)
(4.33333 -1.77597e-14 0)
(4.33333 1.56394e-14 0)
(4.33333 -7.90336e-14 0)
(4.33333 -1.1354e-13 0)
(4.33333 -5.27224e-14 0)
(4.33333 -6.01671e-14 0)
(4.33333 -3.77765e-14 0)
(4.33333 -8.34477e-15 0)
(4.33333 -1.41224e-14 0)
(4.33333 4.81883e-14 0)
(4.33333 6.28942e-14 0)
(4.33333 1.19157e-13 0)
(4.33333 1.01671e-13 0)
(4.33333 -7.97271e-14 0)
(4.33333 -8.54081e-14 0)
(4.33333 -6.06771e-14 0)
(4.33333 1.89799e-14 0)
(4.33333 9.0829e-14 0)
(4.33333 -1.82465e-14 0)
(4.33333 -1.19094e-13 0)
(4.33333 -1.05121e-13 0)
(4.33333 -7.00121e-15 0)
(4.33333 1.15723e-13 0)
(4.33333 1.45632e-13 0)
(4.33333 1.3708e-13 0)
(4.33333 1.3353e-13 0)
(4.33333 1.1746e-13 0)
(4.33333 1.99745e-13 0)
(4.33333 2.06436e-14 0)
(4.33333 2.25172e-14 0)
(4.33333 9.70834e-15 0)
(4.33333 -2.35474e-14 0)
(4.33333 -7.69266e-14 0)
(4.33333 -1.28342e-13 0)
(4.33333 -1.12173e-13 0)
(4.33333 -8.14407e-14 0)
(4.33333 -6.76483e-14 0)
(4.33333 -7.55064e-14 0)
(4.33333 -1.40664e-13 0)
(4.33333 -1.53617e-13 0)
(4.33333 -1.57494e-13 0)
(4.33333 -1.39968e-13 0)
(4.33333 -6.30842e-14 0)
(4.33333 -2.83416e-14 0)
(4.33333 -1.26489e-14 0)
(4.33333 1.35423e-14 0)
(4.33333 -1.00137e-13 0)
(4.33333 -5.38593e-14 0)
(4.33333 -1.26589e-14 0)
(4.33333 -1.20287e-14 0)
(4.33333 -1.89166e-14 0)
(4.33333 2.77615e-14 0)
(4.33333 1.70229e-14 0)
(4.33333 1.66162e-14 0)
(4.33333 -7.1399e-14 0)
(4.33333 -6.86319e-14 0)
(4.33333 -7.33393e-14 0)
(4.33333 -5.53096e-14 0)
(4.33333 -8.81286e-14 0)
(4.33333 -1.08352e-13 0)
(4.33333 -8.8532e-14 0)
(4.33333 -5.42527e-14 0)
(4.33333 6.53013e-14 0)
(4.33333 9.96872e-14 0)
(4.33333 1.77641e-13 0)
(4.33333 2.52444e-13 0)
(4.33333 2.70767e-13 0)
(4.33333 2.09638e-13 0)
(4.33333 2.55244e-14 0)
(4.33333 2.34774e-14 0)
(4.33333 1.39224e-14 0)
(4.33333 -7.53797e-15 0)
(4.33333 -1.50526e-14 0)
(4.33333 -1.05418e-14 0)
(4.33333 -1.49626e-14 0)
(4.33333 -8.10707e-14 0)
(4.33333 -1.16323e-13 0)
(4.33333 -1.85699e-13 0)
(4.33333 -2.38381e-13 0)
(4.33333 -2.25096e-13 0)
(4.33333 -2.15614e-13 0)
(4.33333 -1.71183e-13 0)
(4.33333 8.43479e-15 0)
(4.33333 1.68929e-13 0)
(4.33333 1.90493e-13 0)
(4.33333 1.12143e-13 0)
(4.33333 -3.879e-14 0)
(4.33333 -1.05908e-13 0)
(4.33333 -7.49463e-14 0)
(4.33333 -1.39857e-14 0)
(4.33333 2.40442e-14 0)
(4.33333 -4.92085e-15 0)
(4.33333 -2.65713e-14 0)
(4.33333 4.12138e-14 0)
(4.33333 9.41963e-14 0)
(4.33333 2.8705e-14 0)
(4.33333 -1.10632e-13 0)
(4.33333 -1.70626e-13 0)
(4.33333 -1.49092e-13 0)
(4.33333 2.08336e-14 0)
(4.33333 6.73316e-14 0)
(4.33333 6.00104e-15 0)
(4.33333 -1.65262e-14 0)
(4.33333 -4.54312e-14 0)
(4.33333 -5.71665e-14 0)
(4.33333 -4.11204e-14 0)
(4.33333 -6.20774e-15 0)
(4.33333 5.66594e-15 0)
(4.33333 8.73151e-15 0)
(4.33333 8.72817e-15 0)
(4.33333 4.74082e-15 0)
(4.33333 1.69363e-14 0)
(4.33333 3.47127e-14 0)
(4.33333 3.21422e-14 0)
(4.33333 1.41858e-14 0)
(4.33333 9.99173e-15 0)
(4.33333 -6.23108e-14 0)
(4.33333 -7.10023e-14 0)
(4.33333 -1.00157e-13 0)
(4.33333 -6.83551e-14 0)
(4.33333 5.45094e-15 0)
(4.33333 9.86937e-14 0)
(4.33333 9.31561e-14 0)
(4.33333 8.57115e-14 0)
(4.33333 1.25755e-13 0)
(4.33333 1.08145e-13 0)
(4.33333 1.06252e-13 0)
(4.33333 7.87903e-14 0)
(4.33333 6.02071e-14 0)
(4.33333 6.19874e-14 0)
(4.33333 1.75074e-13 0)
(4.33333 1.14826e-13 0)
(4.33333 7.87803e-14 0)
(4.33333 5.46461e-14 0)
(4.33333 2.31107e-14 0)
(4.33333 1.50093e-14 0)
(4.33333 1.33256e-14 0)
(4.33333 2.58478e-14 0)
(4.33333 9.07823e-15 0)
(4.33333 3.97535e-14 0)
(4.33333 4.55979e-14 0)
(4.33333 -9.68601e-14 0)
(4.33333 -1.62188e-13 0)
(4.33333 -1.59007e-13 0)
(4.33333 -1.60801e-13 0)
(4.33333 -1.96387e-13 0)
(4.33333 -1.68966e-13 0)
(4.33333 -8.3989e-14 0)
(4.33333 -1.79464e-14 0)
(4.33333 -1.29422e-14 0)
(4.33333 -1.936e-14 0)
(4.33333 -1.48159e-14 0)
(4.33333 -2.82049e-14 0)
(4.33333 -2.87316e-14 0)
(4.33333 -6.36777e-15 0)
(4.33333 1.67429e-14 0)
(4.33333 9.91838e-15 0)
(4.33333 -5.46261e-14 0)
(4.33333 -3.24689e-14 0)
(4.33333 -4.79616e-14 0)
(4.33333 -5.72432e-15 0)
(4.33333 1.70176e-13 0)
(4.33333 2.01331e-13 0)
(4.33333 1.07709e-13 0)
(4.33333 7.38227e-14 0)
(4.33333 8.84353e-14 0)
(4.33333 1.08352e-13 0)
(4.33333 1.9255e-13 0)
(4.33333 1.87266e-13 0)
(4.33333 1.16247e-13 0)
(4.33333 8.24842e-14 0)
(4.33333 7.76901e-14 0)
(4.33333 1.28322e-13 0)
(4.33333 1.06752e-14 0)
(4.33333 -3.46093e-14 0)
(4.33333 -4.14805e-14 0)
(4.33333 8.50447e-14 0)
(4.33333 1.90586e-13 0)
(4.33333 1.54513e-13 0)
(4.33333 1.33206e-13 0)
(4.33333 5.10421e-14 0)
(4.33333 -5.9797e-14 0)
(4.33333 -1.1733e-13 0)
(4.33333 -1.81278e-13 0)
(4.33333 -2.76254e-13 0)
(4.33333 -2.83719e-13 0)
(4.33333 -2.46546e-13 0)
(4.33333 -2.04328e-13 0)
(4.33333 -3.4816e-14 0)
(4.33333 -2.63245e-14 0)
(4.33333 1.47392e-14 0)
(4.33333 -1.03418e-14 0)
(4.33333 -3.14521e-14 0)
(4.33333 -2.77248e-14 0)
(4.33333 4.87317e-14 0)
(4.33333 5.93669e-14 0)
(4.33333 1.19677e-13 0)
(4.33333 6.40144e-14 0)
(4.33333 3.14054e-14 0)
(4.33333 4.9962e-14 0)
(4.33333 1.11286e-14 0)
(4.33333 -5.65864e-14 0)
(4.33333 1.17547e-13 0)
(4.33333 1.3481e-13 0)
(4.33333 8.06939e-14 0)
(4.33333 2.45776e-14 0)
(4.33333 3.81533e-14 0)
(4.33333 3.55861e-14 0)
(4.33333 4.37376e-14 0)
(4.33333 -2.19805e-14 0)
(4.33333 -1.20818e-13 0)
(4.33333 -1.04281e-13 0)
(4.33333 -9.25993e-14 0)
(4.33333 -6.13373e-14 0)
(4.33333 -3.75798e-14 0)
(4.33333 -1.42691e-15 0)
(4.33333 4.08637e-14 0)
(4.33333 6.08072e-14 0)
(4.33333 1.21231e-13 0)
(4.33333 9.98139e-14 0)
(4.33333 2.98418e-14 0)
(4.33333 -2.02602e-14 0)
(4.33333 -7.49629e-14 0)
(4.33333 -2.40965e-13 0)
(4.33333 -2.01778e-13 0)
(4.33333 -1.76887e-13 0)
(4.33333 -2.11043e-13 0)
(4.33333 -2.20219e-13 0)
(4.33333 -5.52095e-15 0)
(4.33333 -1.04351e-15 0)
(4.33333 -2.61712e-14 0)
(4.33333 -6.68349e-14 0)
(4.33333 -6.71349e-14 0)
(4.33333 -5.59097e-14 0)
(4.33333 -4.45677e-14 0)
(4.33333 6.14706e-14 0)
(4.33333 8.11073e-14 0)
(4.33333 1.02831e-13 0)
(4.33333 8.80585e-14 0)
(4.33333 9.84803e-14 0)
(4.33333 8.24109e-14 0)
(4.33333 -2.78748e-14 0)
(4.33333 -8.06439e-14 0)
(4.33333 -8.62816e-14 0)
(4.33333 -1.12579e-13 0)
(4.33333 -1.47015e-13 0)
(4.33333 -1.64638e-13 0)
(4.33333 -1.78908e-13 0)
(4.33333 -2.00665e-13 0)
(4.33333 -2.42962e-13 0)
(4.33333 -1.88386e-13 0)
(4.33333 -2.03402e-13 0)
(4.33333 -1.97587e-13 0)
(4.33333 -1.63152e-13 0)
(4.33333 -1.67199e-13 0)
(4.33333 -1.86132e-13 0)
(4.33333 -1.71886e-13 0)
(4.33333 -9.43663e-14 0)
(4.33333 1.15687e-14 0)
(4.33333 7.42728e-14 0)
(4.33333 4.29407e-14 0)
(4.33333 -4.40376e-14 0)
(4.33333 -1.25042e-13 0)
(4.33333 -1.55694e-13 0)
(4.33333 -1.12866e-13 0)
(4.33333 -1.03074e-13 0)
(4.33333 -1.19931e-13 0)
(4.33333 -9.61468e-14 0)
(4.33333 5.72766e-15 0)
(4.33333 -8.21475e-15 0)
(4.33333 -3.89001e-14 0)
(4.33333 -2.43309e-14 0)
(4.33333 -9.05156e-15 0)
(4.33333 -9.81169e-15 0)
(4.33333 -2.97051e-14 0)
(4.33333 -4.6148e-14 0)
(4.33333 -8.27543e-14 0)
(4.33333 -3.73298e-14 0)
(4.33333 8.22142e-15 0)
(4.33333 1.03585e-14 0)
(4.33333 3.01619e-14 0)
(4.33333 -3.63329e-14 0)
(4.33333 -8.93154e-14 0)
(4.33333 -1.15903e-13 0)
(4.33333 -1.67806e-13 0)
(4.33333 -1.91713e-13 0)
(4.33333 -2.15164e-13 0)
(4.33333 -2.18814e-13 0)
(4.33333 -2.03005e-13 0)
(4.33333 -1.48269e-13 0)
(4.33333 -1.04038e-13 0)
(4.33333 -9.8277e-14 0)
(4.33333 -8.73184e-14 0)
(4.33333 -7.61198e-14 0)
(4.33333 -9.50798e-14 0)
(4.33333 -1.31349e-13 0)
(4.33333 -1.51403e-13 0)
(4.33333 -9.47297e-14 0)
(4.33333 4.58746e-15 0)
(4.33333 5.50162e-14 0)
(4.33333 4.31741e-14 0)
(4.33333 3.77532e-14 0)
(4.33333 -2.86049e-15 0)
(4.33333 -2.04002e-14 0)
(4.33333 -4.4371e-14 0)
(4.33333 -1.04818e-14 0)
(4.33333 4.25073e-15 0)
(4.33333 4.5278e-14 0)
(4.33333 3.00752e-14 0)
(4.33333 3.65496e-14 0)
(4.33333 6.03738e-14 0)
(4.33333 7.3536e-14 0)
(4.33333 8.13307e-14 0)
(4.33333 1.14133e-13 0)
(4.33333 6.70149e-14 0)
(4.33333 -3.49027e-14 0)
(4.33333 -2.85249e-14 0)
(4.33333 4.15205e-14 0)
(4.33333 1.27209e-13 0)
(4.33333 1.68933e-13 0)
(4.33333 8.64083e-14 0)
(4.33333 4.88151e-14 0)
(4.33333 3.26923e-14 0)
(4.33333 6.49746e-14 0)
(4.33333 4.6278e-14 0)
(4.33333 -7.32126e-15 0)
(4.33333 -7.97571e-14 0)
(4.33333 -9.61166e-14 0)
(4.33333 -9.42596e-14 0)
(4.33333 -6.49912e-14 0)
(4.33333 -7.97604e-14 0)
(4.33333 -7.84469e-14 0)
(4.33333 -4.72382e-14 0)
(4.33333 8.07139e-15 0)
(4.33333 1.47625e-14 0)
(4.33333 8.91154e-15 0)
(4.33333 -6.46778e-15 0)
(4.33333 -4.66581e-14 0)
(4.33333 -5.5983e-14 0)
(4.33333 -4.97919e-14 0)
(4.33333 -5.47161e-14 0)
(4.33333 6.92786e-14 0)
(4.33333 6.40144e-14 0)
(4.33333 2.55444e-14 0)
(4.33333 3.82999e-14 0)
(4.33333 7.39461e-14 0)
(4.33333 7.40795e-14 0)
(4.33333 1.04948e-13 0)
(4.33333 4.01403e-15 0)
(4.33333 -3.44059e-15 0)
(4.33333 2.70713e-14 0)
(4.33333 4.53012e-14 0)
(4.33333 8.72851e-14 0)
(4.33333 9.81903e-14 0)
(4.33333 9.18925e-14 0)
(4.33333 1.60434e-13 0)
(4.33333 2.18981e-13 0)
(4.33333 2.17051e-13 0)
(4.33333 1.82825e-13 0)
(4.33333 7.54297e-14 0)
(4.33333 1.56294e-14 0)
(4.33333 -3.21322e-14 0)
(4.33333 -4.07404e-15 0)
(4.33333 1.62261e-14 0)
(4.33333 1.97501e-14 0)
(4.33333 2.28439e-14 0)
(4.33333 5.97136e-14 0)
(4.33333 8.83986e-14 0)
(4.33333 1.1505e-13 0)
(4.33333 4.46777e-14 0)
(4.33333 -8.44946e-14 0)
(4.33333 -9.2916e-14 0)
(4.33333 -6.80217e-14 0)
(4.33333 -1.97534e-14 0)
(4.33333 4.28841e-14 0)
(4.33333 9.20526e-14 0)
(4.33333 1.59237e-13 0)
(4.33333 1.11196e-13 0)
(4.33333 -3.00185e-14 0)
(4.33333 -3.21355e-14 0)
(4.33333 -9.07823e-15 0)
(4.33333 -1.64195e-14 0)
(4.33333 7.1179e-15 0)
(4.33333 -3.21456e-14 0)
(4.33333 -1.907e-14 0)
(4.33333 5.66431e-14 0)
(4.33333 5.30792e-14 0)
(4.33333 -2.22193e-14 0)
(4.33333 -8.00805e-15 0)
(4.33333 -1.45625e-14 0)
(4.33333 -3.34324e-14 0)
(4.33333 -2.75414e-14 0)
(4.33333 -1.5316e-14 0)
(4.33333 2.7238e-15 0)
(4.33333 6.74183e-14 0)
(4.33333 1.63345e-13 0)
(4.33333 2.01772e-13 0)
(4.33333 1.54223e-13 0)
(4.33333 2.96585e-14 0)
(4.33333 -5.60497e-14 0)
(4.33333 -6.5588e-14 0)
(4.33333 -4.70581e-14 0)
(4.33333 -4.11304e-14 0)
(4.33333 -1.73697e-14 0)
(4.33333 -2.01435e-14 0)
(4.33333 2.21672e-14 0)
(4.33333 1.42958e-13 0)
(4.33333 2.00678e-13 0)
(4.33333 2.79272e-13 0)
(4.33333 1.73497e-13 0)
(4.33333 6.16173e-14 0)
(4.33333 6.67315e-14 0)
(4.33333 2.54411e-14 0)
(4.33333 -2.34274e-14 0)
(4.33333 -6.67849e-14 0)
(4.33333 1.61361e-14 0)
(4.33333 -5.52095e-15 0)
(4.33333 -1.80865e-14 0)
(4.33333 4.54112e-14 0)
(4.33333 2.48243e-14 0)
(4.33333 -1.29589e-14 0)
(4.33333 -7.42128e-14 0)
(4.33333 -2.24372e-14 0)
(4.33333 8.11874e-14 0)
(4.33333 1.05061e-13 0)
(4.33333 8.68583e-14 0)
(4.33333 1.59928e-14 0)
(4.33333 -7.40734e-14 0)
(4.33333 3.47393e-15 0)
(4.33333 2.67046e-14 0)
(4.33333 7.80135e-16 0)
(4.33333 -2.26973e-14 0)
(4.33333 -7.00121e-16 0)
(4.33333 -3.33558e-14 0)
(4.33333 -2.85683e-14 0)
(4.33333 1.77364e-14 0)
(4.33333 -5.791e-15 0)
(4.33333 1.97534e-14 0)
(4.33333 2.44942e-14 0)
(4.33333 1.3289e-14 0)
(4.33333 -1.1682e-14 0)
(4.33333 -4.2374e-15 0)
(4.33333 1.87132e-14 0)
(4.33333 3.837e-14 0)
(4.33333 8.01905e-14 0)
(4.33333 1.73463e-14 0)
(4.33333 9.85504e-15 0)
(4.33333 1.96801e-14 0)
(4.33333 6.0127e-14 0)
(4.33333 7.25259e-14 0)
(4.33333 5.63997e-14 0)
(4.33333 6.35043e-14 0)
(4.33333 3.20922e-14 0)
(4.33333 1.61695e-15 0)
(4.33333 -1.52493e-14 0)
(4.33333 9.00689e-14 0)
(4.33333 6.10972e-14 0)
(4.33333 3.18822e-14 0)
(4.33333 6.06038e-14 0)
(4.33333 6.46945e-14 0)
(4.33333 -3.54295e-14 0)
(4.33333 -4.12571e-14 0)
(4.33333 6.35976e-14 0)
(4.33333 1.09942e-13 0)
(4.33333 1.54613e-13 0)
(4.33333 1.08315e-13 0)
(4.33333 -1.63228e-14 0)
(4.33333 -4.99737e-14 0)
(4.33333 -1.956e-14 0)
(4.33333 -3.96769e-14 0)
(4.33333 -4.36409e-14 0)
(4.33333 -1.27689e-15 0)
(4.33333 -7.1379e-15 0)
(4.33333 -3.19589e-14 0)
(4.33333 -5.6123e-14 0)
(4.33333 -5.805e-14 0)
(4.33333 -5.30125e-14 0)
(4.33333 -4.63847e-14 0)
(4.33333 -4.37309e-14 0)
(4.33333 -5.45261e-14 0)
(4.33333 -8.54514e-14 0)
(4.33333 -9.2376e-14 0)
(4.33333 -7.88369e-14 0)
(4.33333 -5.05121e-14 0)
(4.33333 -4.2604e-14 0)
(4.33333 -9.73068e-14 0)
(4.33333 -9.4703e-14 0)
(4.33333 -1.19017e-13 0)
(4.33333 -1.39968e-13 0)
(4.33333 -1.69629e-14 0)
(4.33333 3.01152e-14 0)
(4.33333 2.50877e-14 0)
(4.33333 6.54446e-15 0)
(4.33333 2.73047e-14 0)
(4.33333 7.77401e-14 0)
(4.33333 1.58761e-13 0)
(4.33333 2.08739e-13 0)
(4.33333 1.76167e-13 0)
(4.33333 1.02984e-13 0)
(4.33333 1.23631e-13 0)
(4.33333 5.93636e-14 0)
(4.33333 2.75348e-14 0)
(4.33333 -5.43094e-15 0)
(4.33333 -1.25822e-14 0)
(4.33333 -3.2929e-14 0)
(4.33333 -1.87099e-14 0)
(4.33333 2.63546e-14 0)
(4.33333 -5.30261e-14 0)
(4.33333 -1.11819e-14 0)
(4.33333 -2.27639e-14 0)
(4.33333 -7.66799e-17 0)
(4.33333 3.83933e-14 0)
(4.33333 1.11453e-14 0)
(4.33333 -1.27589e-14 0)
(4.33333 1.39324e-14 0)
(4.33333 2.45709e-14 0)
(4.33333 1.96401e-14 0)
(4.33333 -2.34474e-14 0)
(4.33333 -5.57196e-14 0)
(4.33333 -7.06989e-14 0)
(4.33333 -4.08937e-14 0)
(4.33333 -2.24939e-14 0)
(4.33333 6.79117e-15 0)
(4.33333 -5.2019e-14 0)
(4.33333 -6.13706e-14 0)
(4.33333 -3.11821e-14 0)
(4.33333 -1.85365e-14 0)
(4.33333 -3.6783e-14 0)
(4.33333 -7.49896e-14 0)
(4.33333 2.45076e-14 0)
(4.33333 9.71334e-14 0)
(4.33333 1.18604e-13 0)
(4.33333 4.09237e-14 0)
(4.33333 4.23273e-14 0)
(4.33333 8.69684e-14 0)
(4.33333 1.21111e-13 0)
(4.33333 9.04256e-14 0)
(4.33333 8.23075e-14 0)
(4.33333 8.01472e-15 0)
(4.33333 -9.92171e-15 0)
(4.33333 -1.93133e-14 0)
(4.33333 -1.00704e-13 0)
(4.33333 -1.48996e-13 0)
(4.33333 -1.44098e-13 0)
(4.33333 -1.64302e-13 0)
(4.33333 -1.48576e-13 0)
(4.33333 -2.57311e-14 0)
(4.33333 1.14832e-13 0)
(4.33333 1.19454e-14 0)
(4.33333 -2.53044e-15 0)
(4.33333 -6.69116e-15 0)
(4.33333 -1.73163e-14 0)
(4.33333 4.12071e-15 0)
(4.33333 2.26139e-14 0)
(4.33333 3.36958e-14 0)
(4.33333 -6.30109e-16 0)
(4.33333 -1.43058e-14 0)
(4.33333 -4.30741e-15 0)
(4.33333 -2.38875e-14 0)
(4.33333 -2.01335e-14 0)
(4.33333 -1.50226e-14 0)
(4.33333 -1.66929e-14 0)
(4.33333 2.28206e-14 0)
(4.33333 -7.5013e-16 0)
(4.33333 1.37324e-14 0)
(4.33333 5.91936e-14 0)
(4.33333 7.22892e-14 0)
(4.33333 4.58312e-14 0)
(4.33333 5.68998e-14 0)
(4.33333 6.73783e-14 0)
(4.33333 7.24492e-14 0)
(4.33333 7.8917e-14 0)
(4.33333 9.0939e-14 0)
(4.33333 6.82985e-14 0)
(4.33333 1.03301e-13 0)
(4.33333 3.30824e-14 0)
(4.33333 1.58161e-14 0)
(4.33333 2.4931e-14 0)
(4.33333 2.73914e-14 0)
(4.33333 2.7258e-14 0)
(4.33333 -6.60747e-14 0)
(4.33333 -1.45845e-13 0)
(4.33333 -1.15423e-13 0)
(4.33333 -1.06188e-13 0)
(4.33333 -1.17674e-13 0)
(4.33333 -1.36487e-13 0)
(4.33333 -1.47129e-13 0)
(4.33333 -2.88876e-14 0)
(4.33333 -3.92068e-15 0)
(4.33333 -3.06186e-14 0)
(4.33333 -6.41511e-14 0)
(4.33333 -9.70601e-14 0)
(4.33333 -7.74367e-14 0)
(4.33333 -2.86183e-14 0)
(4.33333 -3.74831e-14 0)
(4.33333 -7.44462e-14 0)
(4.33333 -9.51564e-14 0)
(4.33333 -7.58764e-14 0)
(4.33333 -5.45794e-14 0)
(4.33333 -6.01437e-15 0)
(4.33333 -6.58114e-15 0)
(4.33333 -5.13455e-14 0)
(4.33333 -1.15113e-13 0)
(4.33333 -6.15073e-14 0)
(4.33333 -6.59881e-14 0)
(4.33333 -2.73114e-14 0)
(4.33333 5.86768e-14 0)
(4.33333 1.65449e-13 0)
(4.33333 1.9463e-13 0)
(4.33333 3.51661e-14 0)
(4.33333 -5.12655e-14 0)
(4.33333 -1.1652e-14 0)
(4.33333 1.06475e-13 0)
(4.33333 1.03358e-13 0)
(4.33333 3.35325e-14 0)
(4.33333 -4.29074e-15 0)
(4.33333 1.76364e-14 0)
(4.33333 2.77081e-14 0)
(4.33333 -3.73064e-15 0)
(4.33333 -1.01217e-13 0)
(4.33333 -1.64082e-13 0)
(4.33333 -2.20535e-13 0)
(4.33333 -1.7418e-13 0)
(4.33333 -5.52762e-14 0)
(4.33333 -5.64698e-14 0)
(4.33333 -3.79265e-14 0)
(4.33333 -6.41777e-14 0)
(4.33333 -8.4551e-14 0)
(4.33333 -3.53394e-16 0)
(4.33333 2.86116e-14 0)
(4.33333 3.79065e-14 0)
(4.33333 -7.40128e-15 0)
(4.33333 -2.5071e-14 0)
(4.33333 -2.97418e-14 0)
(4.33333 -3.90834e-14 0)
(4.33333 -4.37075e-14 0)
(4.33333 -9.53498e-14 0)
(4.33333 -1.26352e-13 0)
(4.33333 -7.3276e-14 0)
(4.33333 1.63328e-14 0)
(4.33333 4.80416e-15 0)
(4.33333 -5.28691e-14 0)
(4.33333 -8.27243e-14 0)
(4.33333 -8.53814e-14 0)
(4.33333 -5.83034e-14 0)
(4.33333 5.6213e-14 0)
(4.33333 7.20758e-14 0)
(4.33333 2.8845e-14 0)
(4.33333 8.8682e-16 0)
(4.33333 3.10054e-15 0)
(4.33333 -2.06069e-14 0)
(4.33333 -3.38725e-14 0)
(4.33333 4.31775e-14 0)
(4.33333 1.12869e-13 0)
(4.33333 7.87536e-14 0)
(4.33333 -2.18404e-14 0)
(4.33333 -9.05556e-14 0)
(4.33333 -7.57431e-14 0)
(4.33333 -5.61764e-14 0)
(4.33333 -1.24755e-13 0)
(4.33333 -1.27519e-13 0)
(4.33333 -1.38807e-13 0)
(4.33333 -1.83632e-13 0)
(4.33333 -1.27025e-13 0)
(4.33333 9.35495e-15 0)
(4.33333 2.25806e-14 0)
(4.33333 1.63795e-14 0)
(4.33333 -1.72916e-14 0)
(4.33333 -4.00069e-17 0)
(4.33333 4.31274e-14 0)
(4.33333 5.53229e-14 0)
(4.33333 4.88351e-14 0)
(4.33333 2.8765e-14 0)
(4.33333 -1.01017e-15 0)
(4.33333 -4.55345e-14 0)
(4.33333 -6.25308e-14 0)
(4.33333 -5.27891e-14 0)
(4.33333 -1.81465e-14 0)
(4.33333 -3.99069e-15 0)
(4.33333 3.12054e-15 0)
(4.33333 1.34523e-14 0)
(4.33333 2.36974e-14 0)
(4.33333 6.29109e-14 0)
(4.33333 1.87299e-14 0)
(4.33333 3.34624e-14 0)
(4.33333 9.19992e-14 0)
(4.33333 1.04771e-13 0)
(4.33333 3.22722e-14 0)
(4.33333 -4.02136e-14 0)
(4.33333 -6.78784e-15 0)
(4.33333 7.71e-14 0)
(4.33333 8.36711e-14 0)
(4.33333 8.13207e-14 0)
(4.33333 6.02371e-14 0)
(4.33333 3.67197e-14 0)
(4.33333 -3.42526e-14 0)
(4.33333 -1.1314e-13 0)
(4.33333 -1.30433e-13 0)
(4.33333 -1.12573e-13 0)
(4.33333 -2.43975e-14 0)
(4.33333 1.01191e-13 0)
(4.33333 1.03031e-13 0)
(4.33333 8.7135e-14 0)
(4.33333 1.39454e-13 0)
(4.33333 2.52147e-13 0)
(4.33333 1.80264e-13 0)
(4.33333 1.45055e-13 0)
(4.33333 1.18735e-13 0)
(4.33333 -2.34707e-15 0)
(4.33333 -1.52026e-15 0)
(4.33333 1.60228e-14 0)
(4.33333 9.22993e-14 0)
(4.33333 9.91104e-14 0)
(4.33333 7.75734e-14 0)
(4.33333 4.37276e-14 0)
(4.33333 6.31376e-14 0)
(4.33333 1.31839e-13 0)
(4.33333 1.45152e-13 0)
(4.33333 9.12491e-14 0)
(4.33333 3.61996e-14 0)
(4.33333 7.86903e-14 0)
(4.33333 1.7129e-13 0)
(4.33333 1.54527e-13 0)
(4.33333 4.57546e-14 0)
(4.33333 -2.97885e-14 0)
(4.33333 -8.06239e-14 0)
(4.33333 -9.69301e-14 0)
(4.33333 -2.11003e-14 0)
(4.33333 -1.03418e-14 0)
(4.33333 -9.78836e-15 0)
(4.33333 4.20439e-14 0)
(4.33333 1.19751e-13 0)
(4.33333 9.68034e-14 0)
(4.33333 1.46692e-16 0)
(4.33333 -8.15307e-14 0)
(4.33333 -1.3622e-13 0)
(4.33333 -1.50903e-13 0)
(4.33333 -4.78683e-14 0)
(4.33333 -3.67363e-14 0)
(4.33333 2.91984e-14 0)
(4.33333 1.49022e-13 0)
(4.33333 1.83395e-13 0)
(4.33333 1.68242e-13 0)
(4.33333 2.07492e-13 0)
(4.33333 1.3304e-13 0)
(4.33333 5.39527e-14 0)
(4.33333 5.22023e-14 0)
(4.33333 7.68419e-14 0)
(4.33333 -8.16141e-15 0)
(4.33333 -1.30789e-14 0)
(4.33333 2.18504e-14 0)
(4.33333 7.8987e-14 0)
(4.33333 8.20075e-14 0)
(4.33333 6.59414e-14 0)
(4.33333 6.18707e-14 0)
(4.33333 6.98887e-14 0)
(4.33333 4.95386e-14 0)
(4.33333 -1.5416e-14 0)
(4.33333 -2.99252e-14 0)
(4.33333 -5.55363e-14 0)
(4.33333 -5.86335e-14 0)
(4.33333 -2.45076e-14 0)
(4.33333 -4.43077e-14 0)
(4.33333 2.00535e-14 0)
(4.33333 -5.63697e-14 0)
(4.33333 -1.02868e-13 0)
(4.33333 -1.17287e-13 0)
(4.33333 -8.85886e-14 0)
(4.33333 4.66281e-14 0)
(4.33333 -1.42591e-14 0)
(4.33333 -5.36493e-14 0)
(4.33333 -3.66063e-14 0)
(4.33333 -9.12824e-15 0)
(4.33333 -6.57414e-14 0)
(4.33333 -9.55832e-14 0)
(4.33333 -5.31125e-14 0)
(4.33333 -2.51243e-14 0)
(4.33333 -9.11157e-15 0)
(4.33333 -8.39145e-15 0)
(4.33333 1.87299e-14 0)
(4.33333 8.94654e-14 0)
(4.33333 9.56999e-14 0)
(4.33333 1.23991e-13 0)
(4.33333 8.02072e-14 0)
(4.33333 -1.7493e-14 0)
(4.33333 -6.34043e-14 0)
(4.33333 -4.93852e-14 0)
(4.33333 -5.48677e-14 0)
(4.33333 2.18204e-14 0)
(4.33333 1.20954e-14 0)
(4.33333 -3.99402e-15 0)
(4.33333 -2.71647e-14 0)
(4.33333 -3.03686e-14 0)
(4.33333 -2.26639e-14 0)
(4.33333 -1.86832e-14 0)
(4.33333 -4.2574e-14 0)
(4.33333 -7.58998e-14 0)
(4.33333 -1.31836e-13 0)
(4.33333 -1.41171e-13 0)
(4.33333 -1.21974e-13 0)
(4.33333 -1.04271e-13 0)
(4.33333 -7.70466e-14 0)
(4.33333 -2.07736e-14 0)
(4.33333 -2.23372e-15 0)
(4.33333 -5.93102e-15 0)
(4.33333 6.48112e-15 0)
(4.33333 2.59812e-14 0)
(4.33333 7.13023e-14 0)
(4.33333 2.21105e-14 0)
(4.33333 -2.75014e-14 0)
(4.33333 -5.74132e-14 0)
(4.33333 -7.75634e-14 0)
(4.33333 -8.3181e-14 0)
(4.33333 -6.42711e-14 0)
(4.33333 3.79332e-14 0)
(4.33333 8.57781e-14 0)
(4.33333 7.38828e-14 0)
(4.33333 3.73364e-14 0)
(4.33333 -9.34495e-15 0)
(4.33333 -4.61046e-14 0)
(4.33333 5.23957e-14 0)
(4.33333 6.51879e-14 0)
(4.33333 5.98737e-14 0)
(4.33333 -4.39376e-14 0)
(4.33333 -1.44785e-13 0)
(4.33333 -1.45372e-13 0)
(4.33333 -1.65462e-13 0)
(4.33333 -1.79619e-13 0)
(4.33333 6.09105e-15 0)
(4.33333 1.59961e-14 0)
(4.33333 -4.37976e-14 0)
(4.33333 -9.88937e-14 0)
(4.33333 -5.94703e-14 0)
(4.33333 -5.42294e-14 0)
(4.33333 -7.49796e-14 0)
(4.33333 -8.01438e-14 0)
(4.33333 -2.16304e-14 0)
(4.33333 4.32241e-14 0)
(4.33333 7.04355e-14 0)
(4.33333 8.21475e-14 0)
(4.33333 7.89236e-14 0)
(4.33333 4.8455e-14 0)
(4.33333 6.7835e-14 0)
(4.33333 -2.67813e-14 0)
(4.33333 -8.28143e-14 0)
(4.33333 -2.50143e-14 0)
(4.33333 2.57044e-14 0)
(4.33333 -7.04455e-15 0)
(4.33333 -7.70166e-14 0)
(4.33333 -5.75533e-14 0)
(4.33333 -4.94252e-14 0)
(4.33333 -1.05682e-13 0)
(4.33333 -1.01307e-13 0)
(4.33333 -6.83318e-14 0)
(4.33333 3.79466e-14 0)
(4.33333 9.68434e-14 0)
(4.33333 9.37562e-14 0)
(4.33333 3.08153e-14 0)
(4.33333 -3.43426e-14 0)
(4.33333 -1.64462e-14 0)
(4.33333 6.74116e-15 0)
(4.33333 1.20007e-13 0)
(4.33333 9.99639e-14 0)
(4.33333 2.74647e-14 0)
(4.33333 -2.9095e-14 0)
(4.33333 -1.63562e-14 0)
(4.33333 -6.30709e-14 0)
(4.33333 -1.53907e-13 0)
(4.33333 -1.80231e-14 0)
(4.33333 5.50762e-15 0)
(4.33333 2.36174e-14 0)
(4.33333 -1.44892e-14 0)
(4.33333 -6.3711e-14 0)
(4.33333 -5.63731e-14 0)
(4.33333 -4.86484e-14 0)
(4.33333 -4.18972e-14 0)
(4.33333 1.13753e-14 0)
(4.33333 4.78383e-14 0)
(4.33333 5.9917e-14 0)
(4.33333 4.50878e-14 0)
(4.33333 3.16055e-14 0)
(4.33333 2.69046e-14 0)
(4.33333 1.89566e-14 0)
(4.33333 -1.39657e-14 0)
(4.33333 -1.61428e-14 0)
(4.33333 -3.05953e-14 0)
(4.33333 -2.85383e-14 0)
(4.33333 -1.03068e-13 0)
(4.33333 -1.11009e-13 0)
(4.33333 -8.59548e-14 0)
(4.33333 -1.15527e-13 0)
(4.33333 -1.7294e-13 0)
(4.33333 -1.69739e-13 0)
(4.33333 -6.51279e-14 0)
(4.33333 -1.04318e-14 0)
(4.33333 2.38675e-14 0)
(4.33333 3.24623e-14 0)
(4.33333 2.15604e-14 0)
(4.33333 4.30008e-14 0)
(4.33333 4.28874e-14 0)
(4.33333 3.64263e-14 0)
(4.33333 6.94853e-14 0)
(4.33333 5.45328e-14 0)
(4.33333 4.96686e-14 0)
(4.33333 9.88637e-14 0)
(4.33333 1.35493e-13 0)
(4.33333 6.56047e-14 0)
(4.33333 -3.73339e-14 0)
(4.33333 -3.12054e-15 0)
(4.33333 1.58294e-14 0)
(4.33333 8.00905e-14 0)
(4.33333 7.62398e-14 0)
(4.33333 1.5356e-14 0)
(4.33333 1.28589e-14 0)
(4.33333 1.31389e-14 0)
(4.33333 -1.98634e-14 0)
(4.33333 -4.29574e-14 0)
(4.33333 -3.85e-14 0)
(4.33333 -8.41279e-14 0)
(4.33333 -9.55098e-14 0)
(4.33333 -7.05488e-14 0)
(4.33333 -5.5833e-14 0)
(4.33333 -1.70463e-14 0)
(4.33333 3.51427e-14 0)
(4.33333 5.75299e-14 0)
(4.33333 3.31257e-14 0)
(4.33333 -5.90502e-14 0)
(4.33333 -1.28262e-13 0)
(4.33333 -1.14336e-13 0)
(4.33333 -8.53247e-14 0)
(4.33333 -5.38126e-14 0)
(4.33333 -4.15938e-14 0)
(4.33333 -3.81132e-14 0)
(4.33333 -3.56628e-14 0)
(4.33333 -6.25408e-14 0)
(4.33333 -9.37762e-14 0)
(4.33333 -8.58748e-14 0)
(4.33333 6.33443e-17 0)
(4.33333 3.20289e-14 0)
(4.33333 -3.36058e-15 0)
(4.33333 -1.71196e-14 0)
(4.33333 1.00184e-13 0)
(4.33333 1.50249e-13 0)
(4.33333 1.68666e-13 0)
(4.33333 1.83232e-13 0)
(4.33333 1.25235e-13 0)
(4.33333 6.46012e-14 0)
(4.33333 3.34351e-16 0)
(4.33333 -8.46146e-15 0)
(4.33333 -2.8985e-14 0)
(4.33333 -4.33742e-15 0)
(4.33333 7.43328e-14 0)
(4.33333 1.35533e-13 0)
(4.33333 9.50231e-14 0)
(4.33333 2.01268e-14 0)
(4.33333 -4.78016e-14 0)
(4.33333 -9.38029e-14 0)
(4.33333 -1.27592e-13 0)
(4.33333 -1.13693e-13 0)
(4.33333 -6.00437e-14 0)
(4.33333 -1.5276e-14 0)
(4.33333 2.55444e-14 0)
(4.33333 1.95734e-14 0)
(4.33333 -4.95652e-14 0)
(4.33333 -7.3476e-14 0)
(4.33333 -3.90234e-14 0)
(4.33333 -8.49813e-15 0)
(4.33333 1.51459e-14 0)
(4.33333 3.98736e-15 0)
(4.33333 -9.40129e-14 0)
(4.33333 -9.18025e-14 0)
(4.33333 -5.19923e-14 0)
(4.33333 -6.29609e-14 0)
(4.33333 -1.16353e-13 0)
(4.33333 -1.1867e-13 0)
(4.33333 -5.9837e-14 0)
(4.33333 -6.19974e-14 0)
(4.33333 -4.47444e-14 0)
(4.33333 -3.94535e-14 0)
(4.33333 -2.08569e-14 0)
(4.33333 -9.15491e-15 0)
(4.33333 1.91233e-14 0)
(4.33333 5.16289e-14 0)
(4.33333 8.04672e-14 0)
(4.33333 7.57264e-14 0)
(4.33333 2.16804e-14 0)
(4.33333 -3.97369e-14 0)
(4.33333 -2.52548e-14 0)
(4.33333 -4.12405e-15 0)
(4.33333 -7.00288e-14 0)
(4.33333 -8.07373e-14 0)
(4.33333 -2.83216e-14 0)
(4.33333 -2.00601e-14 0)
(4.33333 -7.64465e-15 0)
(4.33333 -2.43175e-14 0)
(4.33333 -2.4891e-14 0)
(4.33333 -6.68549e-14 0)
(4.33333 -6.04138e-14 0)
(4.33333 -2.36041e-15 0)
(4.33333 8.90454e-14 0)
(4.33333 1.06652e-13 0)
(4.33333 8.24042e-14 0)
(4.33333 4.93018e-14 0)
(4.33333 2.55477e-14 0)
(4.33333 6.80451e-14 0)
(4.33333 3.80732e-14 0)
(4.33333 4.51878e-14 0)
(4.33333 4.8345e-14 0)
(4.33333 1.70529e-14 0)
(4.33333 -7.24125e-14 0)
(4.33333 -1.30019e-13 0)
(4.33333 -1.22398e-13 0)
(4.33333 -1.72993e-13 0)
(4.33333 -2.28456e-13 0)
(4.33333 -2.16581e-13 0)
(4.33333 -1.58917e-13 0)
(4.33333 -1.73623e-13 0)
(4.33333 -1.42041e-13 0)
(4.33333 -1.21604e-13 0)
(4.33333 -1.40501e-13 0)
(4.33333 -1.88689e-13 0)
(4.33333 -1.5201e-13 0)
(4.33333 -2.05155e-13 0)
(4.33333 -2.07092e-13 0)
(4.33333 -2.1066e-13 0)
(4.33333 -2.16511e-13 0)
(4.33333 -1.52813e-13 0)
(4.33333 -1.0416e-13 0)
(4.33333 2.00835e-14 0)
(4.33333 1.21921e-14 0)
(4.33333 -2.36274e-14 0)
(4.33333 -4.53312e-14 0)
(4.33333 -3.03886e-14 0)
(4.33333 -6.9512e-15 0)
(4.33333 -1.75364e-15 0)
(4.33333 4.64947e-14 0)
(4.33333 4.19139e-14 0)
(4.33333 3.04986e-14 0)
(4.33333 6.17107e-15 0)
(4.33333 -3.864e-15 0)
(4.33333 8.6915e-15 0)
(4.33333 5.63497e-14 0)
(4.33333 8.44179e-14 0)
(4.33333 1.12036e-13 0)
(4.33333 9.55498e-14 0)
(4.33333 3.6683e-14 0)
(4.33333 1.03385e-14 0)
(4.33333 -6.22774e-15 0)
(4.33333 -2.16604e-14 0)
(4.33333 1.98601e-14 0)
(4.33333 5.55096e-15 0)
(4.33333 -3.09653e-14 0)
(4.33333 -9.80203e-14 0)
(4.33333 -1.80855e-13 0)
(4.33333 -2.2982e-13 0)
(4.33333 -2.49846e-13 0)
(4.33333 -2.2986e-13 0)
(4.33333 -2.54477e-13 0)
(4.33333 -2.17261e-13 0)
(4.33333 -2.1049e-13 0)
(4.33333 -2.05419e-13 0)
(4.33333 -2.16654e-13 0)
(4.33333 -2.29733e-13 0)
(4.33333 -3.15838e-13 0)
(4.33333 -3.17868e-13 0)
(4.33333 -3.12254e-13 0)
(4.33333 -2.69073e-13 0)
(4.33333 -2.55018e-13 0)
(4.33333 1.20854e-14 0)
(4.33333 3.22356e-14 0)
(4.33333 2.64412e-14 0)
(4.33333 -7.00121e-17 0)
(4.33333 1.27522e-14 0)
(4.33333 2.26873e-14 0)
(4.33333 7.83635e-14 0)
(4.33333 6.24908e-14 0)
(4.33333 1.25482e-13 0)
(4.33333 7.37194e-14 0)
(4.33333 -3.20055e-14 0)
(4.33333 -5.58463e-14 0)
(4.33333 -5.25757e-14 0)
(4.33333 -2.16204e-14 0)
(4.33333 8.87153e-15 0)
(4.33333 1.55394e-14 0)
(4.33333 -1.01351e-14 0)
(4.33333 -1.47425e-14 0)
(4.33333 -8.28476e-15 0)
(4.33333 3.52061e-14 0)
(4.33333 1.79464e-14 0)
(4.33333 -3.23323e-14 0)
(4.33333 -5.78833e-14 0)
(4.33333 -1.06902e-13 0)
(4.33333 -9.78702e-14 0)
(4.33333 -1.16894e-13 0)
(4.33333 -1.62075e-13 0)
(4.33333 -1.76834e-13 0)
(4.33333 -1.65499e-13 0)
(4.33333 -1.77581e-13 0)