/*--------------------------------*- C++ -*----------------------------------*\
| =========                 |                                                 |
| \\      /  F ield         | OpenFOAM: The Open Source CFD Toolbox           |
|  \\    /   O peration     | Version:  2206                                  |
|   \\  /    A nd           | Website:  www.openfoam.com                      |
|    \\/     M anipulation  |                                                 |
\*---------------------------------------------------------------------------*/
FoamFile
{
    version     2.0;
    format      ascii;
    arch        "LSB;label=32;scalar=64";
    class       volScalarField;
    location    "0.12";
    object      p;
}
// * * * * * * * * * * * * * * * * * * * * * * * * * * * * * * * * * * * * * //

dimensions      [1 -1 -2 0 0 0 0];

internalField   nonuniform List<scalar> 
4800
(
1
1
1
1
1
1
1
1
1
1
1
1
1
1
1
1
1
1
1
1
1
1
1
1
1
1
1
1
1
1
1
1
1
1
1
1
1
1
1
1
1
1
1
1
1
1
1
1
1
1
1
1
1
1
1
1
1
1
1
1
1
1
1
1
1
1
1
1
1
1
1
1
1
1
1
1
1
1
1
1
1
1
1
1
1
1
1
1
1
1
1
1
1
1
1
1
1
1
1
1
1
1
1
1
1
1
1
1
1
1
1
1
1
1
1
1
1
1
1
1
1
1
1
1
1
1
1
1
1
1
1
1
1
1
1
1
1
1
1
1
1
1
1
1
1
1
1
1
1
1
1
1
1
1
1
1
1
1
1
1
1
1
1
1
1
1
1
1
1
1
1
1
1
1
1
1
1
1
1
1
1
1
1
1
1
1
1
1
1
1
1
1
1
1
1
1
1
1
1
1
1
1
1
1
1
1
1
1
1
1
1
1
1
1
1
1
1
1
1
1
1
1
1
1
1
1
1
1
1
1
1
1
1
1
1
1
1
1
1
1
1
1
1
1
1
1
1
1
1
1
1
1
1
1
1
1
1
1
1
1
1
1
1
1
1
1
1
1
1
1
1
1
1
1
1
1
1
1
1
1
1
1
1
1
1
1
1
1
1
1
1
1
1
1
1
1
1
1
1
1
1
1
1
1
1
1
1
1
1
1
1
1
1
1
1
1
1
1
1
1
1
1
1
1
1
1
1
1
1
1
1
1
1
1
1
1
1
1
1
1
1
1
1
1
1
1
1
1
1
1
1
1
1
1
1
1
1
1
1
1
1
1
1
1
1
1
1
1
1
1
1
1
1
1
1
1
1
1
1
1
1
1
1
1
1
1
1
1
1
1
1
1
1
1
1
1
1
1
1
1
1
1
1
1
1
1
1
1
1
1
1
1
1
1
1
1
1
1
1
1
1
1
1
1
1
1
1
1
1
1
1
1
1
1
1
1
1
1
1
1
1
1
1
1
1
1
1
1
1
1
1
1
1
1
1
1
1
1
1
1
1
1
1
1
1
1
1
1
1
1
1
1
1
1
1
1
1
1
1
1
1
1
1
1
1
1
1
1
1
1
1
1
1
1
1
1
1
1
1
1
1
1
1
1
1
1
1
1
1
1
1
1
1
1
1
1
1
1
1
1
1
1
1
1
1
1
1
1
1
1
1
1
1
1
1
1
1
1
1
1
1
1
1
1
1
1
1
1
1
1
1
1
1
1
1
1
1
1
1
1
1
1
1
1
1
1
1
1
1
1
1
1
1
1
1
1
1
1
1
1
1
1
1
1
1
1
1
1
1
1
1
1
1
1
1
1
1
1
1
1
1
1
1
1
1
1
1
1
1
1
1
1
1
1
1
1
1
1
1
1
1
1
1
1
1
1
1
1
1
1
1
1
1
1
1
1
1
1
1
1
1
1
1
1
1
1
1
1
1
1
1
1
1
1
1
1
1
1
1
1
1
1
1
1
1
1
1
1
1
1
1
1
1
1
1
1
1
1
1
1
1
1
1
1
1
1
1
1
1
1
1
1
1
1
1
1
1
1
1
1
1
1
1
1
1
1
1
1
1
1
1
1
1
1
1
1
1
1
1
1
1
1
1
1
1
1
1
1
1
1
1
1
1
1
1
1
1
1
1
1
1
1
1
1
1
1
1
1
1
1
1
1
1
1
1
1
1
1
1
1
1
1
1
1
1
1
1
1
1
1
1
1
1
1
1
1
1
1
1
1
1
1
1
1
1
1
1
1
1
1
1
1
1
1
1
1
1
1
1
1
1
1
1
1
1
1
1
1
1
1
1
1
1
1
1
1
1
1
1
1
1
1
1
1
1
1
1
1
1
1
1
1
1
1
1
1
1
1
1
1
1
1
1
1
1
1
1
1
1
1
1
1
1
1
1
1
1
1
1
1
1
1
1
1
1
1
1
1
1
1
1
1
1
1
1
1
1
1
1
1
1
1
1
1
1
1
1
1
1
1
1
1
1
1
1
1
1
1
1
1
1
1
1
1
1
1
1
1
1
1
1
1
1
1
1
1
1
1
1
1
1
1
1
1
1
1
1
1
1
1
1
1
1
1
1
1
1
1
1
1
1
1
1
1
1
1
1
1
1
1
1
1
1
1
1
1
1
1
1
1
1
1
1
1
1
1
1
1
1
1
1
1
1
1
1
1
1
1
1
1
1
1
1
1
1
1
1
1
1
1
1
1
1
1
1
1
1
1
1
1
1
1
1
1
1
1
1
1
1
1
1
1
1
1
1
1
1
1
1
1
1
1
1
1
1
1
1
1
1
1
1
1
1
1
1
1
1
1
1
1
1
1
1
1
1
1
1
1
1
1
1
1
1
1
1
1
1
1
1
1
1
1
1
1
1
1
1
1
1
1
1
1
1
1
1
1
1
1
1
1
1
1
1
1
1
1
1
1
1
1
1
1
1
1
1
1
1
1
1
1
1
1
1
1
1
1
1
1
1
1
1
1
1
1
1
1
1
1
1
1
1
1
1
1
1
1
1
1
1
1
1
1
1
1
1
1
1
1
1
1
1
1
1
1
1
1
1
1
1
1
1
1
1
1
1
1
1
1
1
1
1
1
1
1
1
1
1
1
1
1
1
1
1
1
1
1
1
1
1
1
1
1
1
1
1
1
1
1
1
1
1
1
1
1
1
1
1
1
1
1
1
1
1
1
1
1
1
1
1
1
1
1
1
1
1
1
1
1
1
1
1
1
1
1
1
1
1
1
1
1
1
1
1
1
1
1
1
1
1
1
1
1
1
1
1
1
1
1
1
1
1
1
1
1
1
1
1
1
1
1
1
1
1
1
1
1
1
1
1
1
1
1
1
1
1
1
1
1
1
1
1
1
1
1
1
1
1
1
1
1
1
1
1
1
1
1
1
1
1
1
1
1
1
1
1
1
1
1
1
1
1
1
1
1
1
1
1
1
1
1
1
1
1
1
1
1
1
1
1
1
1
1
1
1
1
1
1
1
1
1
1
1
1
1
1
1
1
1
1
1
1
1
1
1
1
1
1
1
1
1
1
1
1
1
1
1
1
1
1
1
1
1
1
1
1
1
1
1
1
1
1
1
1
1
1
1
1
1
1
1
1
1
1
1
1
1
1
1
1
1
1
1
1
1
1
1
1
1
1
1
1
1
1
1
1
1
1
1
1
1
1
1
1
1
1
1
1
1
1
1
1
1
1
1
1
1
1
1
1
1
1
1
1
1
1
1
1
1
1
1
1
1
1
1
1
1
1
1
1
1
1
1
1
1
1
1
1
1
1
1
1
1
1
1
1
1
1
1
1
1
1
1
1
1
1
1
1
1
1
1
1
1
1
1
1
1
1
1
1
1
1
1
1
1
1
1
1
1
1
1
1
1
1
1
1
1
1
1
1
1
1
1
1
1
1
1
1
1
1
1
1
1
1
1
1
1
1
1
1
1
1
1
1
1
1
1
1
1
1
1
1
1
1
1
1
1
1
1
1
1
1
1
1
1
1
1
1
1
1
1
1
1
1
1
1
1
1
1
1
1
1
1
1
1
1
1
1
1
1
1
1
1
1
1
1
1
1
1
1
1
1.25855
1.66728
2.15039
2.73909
3.43096
3.98908
4.56041
5.48573
6.41703
6.73353
7.00488
7.661
8.42404
8.47874
8.42971
8.41514
8.34497
8.10308
7.54862
6.80223
6.30341
5.95562
5.62231
5.32437
5.23201
5.23463
5.21197
5.19259
5.21909
5.30769
5.44055
5.51307
5.50958
5.52961
5.58207
5.63942
5.65505
5.65344
5.65593
5.67376
5.69425
5.70001
5.6942
5.66443
5.6128
5.58847
5.59495
5.65788
5.743
5.77981
5.77856
5.75089
5.70403
5.66009
5.63053
5.61225
5.60555
5.61559
5.66207
5.73127
5.78009
5.80276
5.80338
5.79068
5.76299
5.71849
5.65579
5.60612
5.59347
5.60169
5.63378
5.68956
5.75455
5.79489
5.81539
5.82649
5.8273
5.81499
5.795
5.74475
1
1
0.999849
0.997564
1.00897
1.12536
1.2077
1.27831
1.53664
2.00259
2.38894
2.74148
3.40573
4.02844
4.42162
4.89222
5.38263
5.70601
5.6539
5.75409
6.25956
6.33793
6.22517
6.02848
5.9249
5.91484
5.88511
5.7817
5.65194
5.62599
5.5867
5.51711
5.4531
5.44242
5.47254
5.54961
5.59555
5.59254
5.59506
5.62005
5.66908
5.69752
5.69635
5.67754
5.66344
5.64417
5.63309
5.6378
5.64538
5.67193
5.70479
5.71236
5.70525
5.7037
5.70793
5.706
5.69139
5.67462
5.67029
5.66972
5.67415
5.69701
5.73089
5.74933
5.74684
5.73325
5.72381
5.70854
5.69158
5.69491
5.7072
5.71167
5.70618
5.69931
5.7006
5.71073
5.73473
5.76341
5.7648
5.74315
1
1
1
1
0.999995
1
1
1
0.999978
0.999997
0.998473
1.0055
1.06067
1.26366
1.49324
1.90501
2.62872
3.55345
4.58664
5.51122
6.44152
6.7298
6.66466
6.62938
6.57113
6.4921
6.40085
6.24153
6.03119
5.76462
5.65892
5.50565
5.43766
5.43969
5.47916
5.55218
5.58268
5.57743
5.56193
5.57038
5.59887
5.64719
5.69518
5.70665
5.70383
5.69996
5.68847
5.6553
5.63188
5.62564
5.62838
5.65544
5.70843
5.74696
5.75536
5.75294
5.74452
5.72935
5.70306
5.66596
5.6405
5.62931
5.63184
5.67013
5.72754
5.7567
5.76475
5.76382
5.76209
5.76462
5.76407
5.75261
5.72371
5.67833
5.64244
5.63071
5.63245
5.66033
5.72276
5.77267
1
1
1
1
1
1
1
1
1
1
1
1
1
1
1
0.998733
1.00732
1.06646
1.37371
1.92455
2.73457
3.88429
4.6357
5.48757
5.87322
5.9526
6.03086
5.9183
5.86054
5.94404
6.00374
5.93571
5.76011
5.7302
5.74559
5.73987
5.70147
5.56149
5.42527
5.40162
5.41784
5.48365
5.60588
5.70274
5.7301
5.73805
5.73072
5.69075
5.63842
5.59641
5.5771
5.58244
5.62718
5.71063
5.77532
5.79632
5.79629
5.77921
5.7334
5.68406
5.64419
5.61333
5.60501
5.61863
5.66171
5.71226
5.75269
5.78535
5.80335
5.80623
5.80049
5.78074
5.72864
5.66072
5.62166
5.61846
5.62652
5.6409
5.66687
5.7415
1
1
1
1
1
1
1
1
1
1
1
1
1
1
1
1
1
0.999997
1
0.99877
1.00612
1.17419
1.5405
2.0791
3.0129
3.98667
5.10609
5.65599
5.94468
6.245
6.22309
6.13135
6.08041
6.05191
6.01228
5.93619
5.77602
5.60365
5.47561
5.45334
5.46122
5.49742
5.57056
5.66602
5.70383
5.70566
5.70002
5.68273
5.64753
5.61617
5.60189
5.60752
5.63296
5.67404
5.7235
5.76219
5.77344
5.76515
5.72444
5.68567
5.66512
5.64809
5.63641
5.64224
5.65752
5.67371
5.69227
5.71807
5.75183
5.77833
5.78436
5.76784
5.73728
5.71454
5.68484
5.66912
5.6694
5.67705
5.6901
5.71791
1
1
1
1
1
1
1
1
1
1
1
1
1
1
1
1
1
1
1
1
1
1
0.999944
0.998302
1.05611
1.26081
1.64053
2.47266
3.30439
4.37099
4.93115
5.23783
5.6006
5.6739
5.75525
5.84057
5.8804
5.82531
5.73581
5.68575
5.65236
5.62355
5.6177
5.60166
5.58598
5.56425
5.56845
5.60571
5.61836
5.623
5.65054
5.66568
5.68138
5.68184
5.67103
5.66523
5.67096
5.68844
5.71775
5.73247
5.73632
5.73917
5.73219
5.71334
5.70145
5.68943
5.66784
5.65886
5.65941
5.67417
5.71196
5.74472
5.75598
5.75586
5.74896
5.74909
5.75392
5.7495
5.73715
5.72981
1
1
1
1
1
1
1
1
1
1
1
1
1
1
1
1
1
1
1
1
1
1
1
1
0.999999
1
0.998966
1.01198
1.08548
1.3037
1.99218
2.82817
3.73434
4.4884
5.07687
5.71942
5.88358
5.89101
5.89252
5.88239
5.84165
5.76998
5.65977
5.54238
5.47977
5.47799
5.49902
5.56309
5.65756
5.71592
5.73371
5.73358
5.69658
5.65088
5.60727
5.5792
5.57517
5.59495
5.67179
5.75934
5.78888
5.79696
5.8
5.79833
5.75899
5.6856
5.63296
5.61258
5.61256
5.62237
5.65454
5.69933
5.73148
5.75357
5.7758
5.7881
5.79692
5.79412
5.77773
5.72617
1
1
1
1
1
1
1
1
1
1
1
1
1
1
1
1
1
1
1
1
1
1
1
1
1
1
1
1
1
0.999525
1.00116
1.03721
1.16604
1.6973
2.34971
3.24597
4.02601
4.62994
5.34132
5.58463
5.62637
5.69324
5.71816
5.63832
5.528
5.49116
5.50478
5.56332
5.67711
5.73123
5.73561
5.74369
5.74876
5.67623
5.5707
5.54225
5.54482
5.57405
5.63103
5.70279
5.76493
5.79377
5.80583
5.80576
5.7963
5.77152
5.71854
5.65458
5.62921
5.63719
5.65765
5.66902
5.67605
5.70259
5.73994
5.77666
5.79771
5.7951
5.77352
5.74432
1
1
1
1
1
1
1
1
1
1
1
1
1
1
1
1
1
1
1
1
1
1
1
1
1
1
1
1
1
1
1
1
1
0.998887
1.00768
1.08244
1.45881
2.00641
2.888
3.79101
4.57666
5.34621
5.68271
5.73784
5.69892
5.58915
5.56043
5.57957
5.62131
5.67029
5.69859
5.72038
5.72603
5.70876
5.66979
5.62802
5.6046
5.60632
5.62594
5.65266
5.6629
5.67345
5.69843
5.73629
5.76751
5.76644
5.75904
5.75396
5.73707
5.72485
5.71211
5.69001
5.6757
5.67674
5.68284
5.69199
5.70655
5.72176
5.73611
5.7471
1
1
1
1
1
1
1
1
1
1
1
1
1
1
1
1
1
1
1
1
1
1
1
1
1
1
1
1
1
1
1
1
1
1
1
1
0.999336
1.00099
1.06161
1.41021
1.88448
2.62241
3.49208
4.52735
5.33893
5.37477
5.35625
5.5136
5.50081
5.4698
5.48176
5.55661
5.64666
5.70564
5.71791
5.72127
5.74359
5.76073
5.7396
5.65583
5.60424
5.5937
5.5992
5.61558
5.65106
5.71537
5.75263
5.76627
5.78605
5.82433
5.82649
5.8026
5.73265
5.65948
5.64258
5.64161
5.64526
5.65229
5.66718
5.71148
1
1
1
1
1
1
1
1
1
1
1
1
1
1
1
1
1
1
1
1
1
1
1
1
1
1
1
1
1
1
1
1
1
1
1
1
1
1
1
0.999973
1.00017
1.04279
1.26587
1.71136
2.62042
3.51957
4.44293
5.2179
5.48652
5.4572
5.40978
5.40926
5.46055
5.61963
5.74424
5.77364
5.80097
5.8255
5.83002
5.78413
5.70499
5.61137
5.56873
5.58075
5.61336
5.63316
5.64548
5.68016
5.76894
5.83334
5.84343
5.83097
5.79403
5.7328
5.67765
5.65123
5.63767
5.63949
5.65455
5.69194
1
1
1
1
1
1
1
1
1
1
1
1
1
1
1
1
1
1
1
1
1
1
1
1
1
1
1
1
1
1
1
1
1
1
1
1
1
1
1
1
1
1
0.999881
0.999545
1.05372
1.31465
1.71746
2.50765
3.51288
4.83061
5.23115
5.19143
5.25872
5.38602
5.4794
5.52935
5.62543
5.76045
5.80671
5.7904
5.7604
5.74286
5.72381
5.69507
5.65622
5.61875
5.61013
5.62035
5.66046
5.71898
5.76782
5.77341
5.76057
5.75114
5.75445
5.74579
5.72202
5.68918
5.66777
5.67978
1
1
1
1
1
1
1
1
1
1
1
1
1
1
1
1
1
1
1
1
1
1
1
1
1
1
1
1
1
1
1
1
1
1
1
1
1
1
1
1
1
1
1
1
1
0.999782
1.00029
1.05078
1.25343
1.86119
2.76775
3.68095
4.70228
5.21922
5.28499
5.31654
5.3187
5.41676
5.64525
5.76153
5.77609
5.79121
5.80778
5.84546
5.83841
5.77445
5.67563
5.62105
5.63013
5.64938
5.64775
5.63977
5.64243
5.69118
5.74342
5.76428
5.77553
5.7797
5.77324
5.74345
1
1
1
1
1
1
1
1
1
1
1
1
1
1
1
1
1
1
1
1
1
1
1
1
1
1
1
1
1
1
1
1
1
1
1
1
1
1
1
1
1
1
1
1
1
1
1
1
0.999496
1.0039
1.10877
1.33264
1.87808
2.85551
4.36591
5.20132
5.17876
5.22824
5.41956
5.49703
5.46845
5.51983
5.66425
5.81634
5.83879
5.80627
5.77694
5.7546
5.72668
5.68777
5.63215
5.6028
5.60254
5.61816
5.67145
5.75149
5.78354
5.79011
5.79865
5.79713
1
1
1
1
1
1
1
1
1
1
1
1
1
1
1
1
1
1
1
1
1
1
1
1
1
1
1
1
1
1
1
1
1
1
1
1
1
1
1
1
1
1
1
1
1
1
1
1
1
0.999991
1.00003
0.999659
1.0096
1.12749
1.6048
2.59554
3.53194
4.44848
5.26846
5.38933
5.31829
5.25907
5.33497
5.56446
5.75733
5.77844
5.7951
5.81541
5.83776
5.85542
5.79507
5.69051
5.61763
5.61442
5.65142
5.66528
5.66568
5.67655
5.72096
5.7809
1
1
1
1
1
1
1
1
1
1
1
1
1
1
1
1
1
1
1
1
1
1
1
1
1
1
1
1
1
1
1
1
1
1
1
1
1
1
1
1
1
1
1
1
1
1
1
1
1
1
1
0.999995
0.999999
0.999813
1.00201
1.08227
1.32039
1.75823
2.73319
4.30375
5.30054
5.26877
5.30904
5.47413
5.59156
5.52531
5.46521
5.55695
5.73265
5.82173
5.79694
5.76019
5.76066
5.76019
5.7322
5.67425
5.63931
5.6341
5.64192
5.6948
1
1
1
1
1
1
1
1
1
1
1
1
1
1
1
1
1
1
1
1
1
1
1
1
1
1
1
1
1
1
1
1
1
1
1
1
1
1
1
1
1
1
1
1
1
1
1
1
1
1
1
1
1
0.999998
0.999991
1.0001
1.00011
1.00853
1.10793
1.64307
2.93581
4.01931
4.77329
5.49106
5.63939
5.54282
5.30309
5.327
5.47001
5.64638
5.71493
5.74735
5.80695
5.85834
5.87948
5.84711
5.75163
5.67077
5.63648
5.65214
1
1
1
1
1
1
1
1
1
1
1
1
1
1
1
1
1
1
1
1
1
1
1
1
1
1
1
1
1
1
1
1
1
1
1
1
1
1
1
1
1
1
1
1
1
1
1
1
1
1
1
1
1
1
1
1
0.999999
1
0.999906
1.00686
1.17656
1.67248
2.2882
3.35676
4.9437
5.48985
5.42554
5.5422
5.61144
5.59
5.53192
5.46151
5.53029
5.70887
5.84249
5.83558
5.79507
5.77367
5.74954
5.69617
1
1
1
1
1
1
1
1
1
1
1
1
1
1
1
1
1
1
1
1
1
1
1
1
1
1
1
1
1
1
1
1
1
1
1
1
1
1
1
1
1
1
1
1
1
1
1
1
1
1
1
1
1
1
1
1
1
1
0.999998
0.99998
1.00023
1.0053
1.05491
1.26405
2.09801
3.60692
4.70801
5.33244
5.68633
5.70056
5.63132
5.46703
5.45054
5.50828
5.60092
5.69427
5.76052
5.7918
5.80594
5.79622
1
1
1
1
1
1
1
1
1
1
1
1
1
1
1
1
1
1
1
1
1
1
1
1
1
1
1
1
1
1
1
1
1
1
1
1
1
1
1
1
1
1
1
1
1
1
1
1
1
1
1
1
1
1
1
1
1
1
1
0.999999
0.999999
1
0.999958
1.00065
1.04167
1.56332
2.52099
3.38755
4.68733
5.55893
5.6835
5.69291
5.77918
5.67689
5.56555
5.55898
5.56524
5.58172
5.64919
5.7443
1
1
1
1
1
1
1
1
1
1
1
1
1
1
1
1
1
1
1
1
1
1
1
1
1
1
1
1
1
1
1
1
1
1
1
1
1
1
1
1
1
1
1
1
1
1
1
1
1
1
1
1
1
1
1
1
1
1
1
1
1
1
0.999997
0.999995
0.999985
1.00706
1.09213
1.41547
2.12386
3.57302
4.72323
5.45878
5.72412
5.81932
5.80955
5.72917
5.62253
5.54733
5.55858
5.62426
1
1
1
1
1
1
1
1
1
1
1
1
1
1
1
1
1
1
1
1
1
1
1
1
1
1
1
1
1
1
1
1
1
1
1
1
1
1
1
1
1
1
1
1
1
1
1
1
1
1
1
1
1
1
1
1
1
1
1
1
1
1
1
1
0.999999
0.999995
1.00008
1.00314
1.03986
1.50601
2.86121
3.90537
4.7993
5.57344
5.80443
5.84778
5.83657
5.73816
5.60684
5.60236
1
1
1
1
1
1
1
1
1
1
1
1
1
1
1
1
1
1
1
1
1
1
1
1
1
1
1
1
1
1
1
1
1
1
1
1
1
1
1
1
1
1
1
1
1
1
1
1
1
1
1
1
1
1
1
1
1
1
1
1
1
1
1
1
1
1
1
0.999995
1.00002
1.00918
1.19187
1.81904
2.80304
4.02218
5.10962
5.71998
5.78627
5.72394
5.74075
5.79428
1
1
1
1
1
1
1
1
1
1
1
1
1
1
1
1
1
1
1
1
1
1
1
1
1
1
1
1
1
1
1
1
1
1
1
1
1
1
1
1
1
1
1
1
1
1
1
1
1
1
1
1
1
1
1
1
1
1
1
1
1
1
1
1
1
1
1
0.999999
0.999999
0.999982
1.00124
1.0211
1.16341
1.96865
3.52208
4.79887
5.16955
5.36257
5.55036
5.77051
1
1
1
1
1
1
1
1
1
1
1
1
1
1
1
1
1
1
1
1
1
1
1
1
1
1
1
1
1
1
1
1
1
1
1
1
1
1
1
1
1
1
1
1
1
1
1
1
1
1
1
1
1
1
1
1
1
1
1
1
1
1
1
1
1
1
1
1
1
0.999998
0.999998
0.999981
1.00117
1.046
1.41085
2.60758
4.34187
5.10431
5.17987
5.40414
1
1
1
1
1
1
1
1
1
1
1
1
1
1
1
1
1
1
1
1
1
1
1
1
1
1
1
1
1
1
1
1
1
1
1
1
1
1
1
1
1
1
1
1
1
1
1
1
1
1
1
1
1
1
1
1
1
1
1
1
1
1
1
1
1
1
1
1
1
1
1
0.999998
0.999995
1.00006
1.00863
1.1487
1.8429
3.38309
4.98278
5.40909
1
1
1
1
1
1
1
1
1
1
1
1
1
1
1
1
1
1
1
1
1
1
1
1
1
1
1
1
1
1
1
1
1
1
1
1
1
1
1
1
1
1
1
1
1
1
1
1
1
1
1
1
1
1
1
1
1
1
1
1
1
1
1
1
1
1
1
1
1
1
1
1
0.999999
0.999999
0.99999
1.00102
1.04057
1.4086
2.65205
4.68061
1
1
1
1
1
1
1
1
1
1
1
1
1
1
1
1
1
1
1
1
1
1
1
1
1
1
1
1
1
1
1
1
1
1
1
1
1
1
1
1
1
1
1
1
1
1
1
1
1
1
1
1
1
1
1
1
1
1
1
1
1
1
1
1
1
1
1
1
1
1
1
1
1
1
0.999999
0.999996
1.00008
1.0107
1.14913
2.76981
1
1
1
1
1
1
1
1
1
1
1
1
1
1
1
1
1
1
1
1
1
1
1
1
1
1
1
1
1
1
1
1
1
1
1
1
1
1
1
1
1
1
1
1
1
1
1
1
1
1
1
1
1
1
1
1
1
1
1
1
1
1
1
1
1
1
1
1
1
1
1
1
1
1
1
1
0.999999
1
1.00173
1.37817
1
1
1
1
1
1
1
1
1
1
1
1
1
1
1
1
1
1
1
1
1
1
1
1
1
1
1
1
1
1
1
1
1
1
1
1
1
1
1
1
1
1
1
1
1
1
1
1
1
1
1
1
1
1
1
1
1
1
1
1
1
1
1
1
1
1
1
1
1
1
1
1
1
1
1
1
1
1
1.00001
1.02774
1
1
1
1
1
1
1
1
1
1
1
1
1
1
1
1
1
1
1
1
1
1
1
1
1
1
1
1
1
1
1
1
1
1
1
1
1
1
1
1
1
1
1
1
1
1
1
1
1
1
1
1
1
1
1
1
1
1
1
1
1
1
1
1
1
1
1
1
1
1
1
1
1
1
1
1
1
1
1
1.00079
1
1
1
1
1
1
1
1
1
1
1
1
1
1
1
1
1
1
1
1
1
1
1
1
1
1
1
1
1
1
1
1
1
1
1
1
1
1
1
1
1
1
1
1
1
1
1
1
1
1
1
1
1
1
1
1
1
1
1
1
1
1
1
1
1
1
1
1
1
1
1
1
1
1
1
1
1
1
1
1.00001
1
1
1
1
1
1
1
1
1
1
1
1
1
1
1
1
1
1
1
1
1
1
1
1
1
1
1
1
1
1
1
1
1
1
1
1
1
1
1
1
1
1
1
1
1
1
1
1
1
1
1
1
1
1
1
1
1
1
1
1
1
1
1
1
1
1
1
1
1
1
1
1
1
1
1
1
1
1
1
1
1
1
1
1
1
1
1
1
1
1
1
1
1
1
1
1
1
1
1
1
1
1
1
1
1
1
1
1
1
1
1
1
1
1
1
1
1
1
1
1
1
1
1
1
1
1
1
1
1
1
1
1
1
1
1
1
1
1
1
1
1
1
1
1
1
1
1
1
1
1
1
1
1
1
1
1
1
1
1
1
1
1
1
1
1
1
1
1
1
1
1
1
1
1
1
1
1
1
1
1
1
1
1
1
1
1
1
1
1
1
1
1
1
1
1
1
1
1
1
1
1
1
1
1
1
1
1
1
1
1
1
1
1
1
1
1
1
1
1
1
1
1
1
1
1
1
1
1
1
1
1
1
1
1
1
1
1
1
1
1
1
1
1
1
1
1
1
1
1
1
1
1
1
1
1
1
1
1
1
1
1
1
1
1
1
1
1
1
1
1
1
1
1
1
1
1
1
1
1
1
1
1
1
1
1
1
1
1
1
1
1
1
1
1
1
1
1
1
1
1
1
1
1
1
1
1
1
1
1
1
1
1
1
1
1
1
1
1
1
1
1
1
1
1
1
1
1
1
1
1
1
1
1
1
1
1
1
1
1
1
1
1
1
1
1
1
1
1
1
1
1
1
1
1
1
1
1
1
1
1
1
1
1
1
1
1
1
1
1
1
1
1
1
1
1
1
1
1
1
1
1
1
1
1
1
1
1
1
1
1
1
1
1
1
1
1
1
1
1
1
1
1
1
1
1
1
1
1
1
1
1
1
1
1
1
1
1
1
1
1
1
1
1
1
1
1
1
1
1
1
1
1
1
1
1
1
1
1
1
1
1
1
1
1
1
1
1
1
1
1
1
1
1
1
1
1
1
1
1
1
1
1
1
1
1
1
1
1
1
1
1
1
1
1
1
1
1
1
1
1
1
1
1
1
1
1
1
1
1
1
1
1
1
1
1
1
1
1
1
1
1
1
1
1
1
1
1
1
1
1
1
1
1
1
1
1
1
1
1
1
1
1
1
1
1
1
1
1
1
1
1
1
1
1
1
1
1
1
1
1
1
1
1
1
1
1
1
1
1
1
1
1
1
1
1
1
1
1
1
1
1
1
1
1
1
1
1
1
1
1
1
1
1
1
1
1
1
1
1
1
1
1
1
1
1
1
1
1
1
1
1
1
1
1
1
1
1
1
1
1
1
1
1
1
1
1
1
1
1
1
1
1
1
1
1
1
1
1
1
1
1
1
1
1
1
1
1
1
1
1
1
1
1
1
1
1
1
1
1
1
)
;

boundaryField
{
    inlet
    {
        type            fixedValue;
        value           uniform 1;
    }
    outlet
    {
        type            zeroGradient;
    }
    bottom
    {
        type            symmetryPlane;
    }
    top
    {
        type            symmetryPlane;
    }
    obstacle
    {
        type            zeroGradient;
    }
    defaultFaces
    {
        type            empty;
    }
}


// ************************************************************************* //
