/*--------------------------------*- C++ -*----------------------------------*\
| =========                 |                                                 |
| \\      /  F ield         | OpenFOAM: The Open Source CFD Toolbox           |
|  \\    /   O peration     | Version:  2206                                  |
|   \\  /    A nd           | Website:  www.openfoam.com                      |
|    \\/     M anipulation  |                                                 |
\*---------------------------------------------------------------------------*/
FoamFile
{
    version     2.0;
    format      ascii;
    arch        "LSB;label=32;scalar=64";
    class       volScalarField;
    location    "0.08";
    object      T;
}
// * * * * * * * * * * * * * * * * * * * * * * * * * * * * * * * * * * * * * //

dimensions      [0 0 0 1 0 0 0];

internalField   nonuniform List<scalar> 
4800
(
1
1
1
1
1
1
1
1
1
1
1
1
1
1
1
1
1
1
1
1
1
1
1
1
1
1
1
1
1
1
1
1
1
1
1
1
1
1
1
1
1
1
1
1
1
1
1
1
1
1
1
1
1
1
1
1
1
1
1
1
1
1
1
1
1
1
1
1
1
1
1
1
1
1
1
1
1
1
1
1
1
1
1
1
1
1
1
1
1
1
1
1
1
1
1
1
1
1
1
1
1
1
1
1
1
1
1
1
1
1
1
1
1
1
1
1
1
1
1
1
1
1
1
1
1
1
1
1
1
1
1
1
1
1
1
1
1
1
1
1
1
1
1
1
1
1
1
1
1
1
1
1
1
1
1
1
1
1
1
1
1
1
1
1
1
1
1
1
1
1
1
1
1
1
1
1
1
1
1
1
1
1
1
1
1
1
1
1
1
1
1
1
1
1
1
1
1
1
1
1
1
1
1
1
1
1
1
1
1
1
1
1
1
1
1
1
1
1
1
1
1
1
1
1
1
1
1
1
1
1
1
1
1
1
1
1
1
1
1
1
1
1
1
1
1
1
1
1
1
1
1
1
1
1
1
1
1
1
1
1
1
1
1
1
1
1
1
1
1
1
1
1
1
1
1
1
1
1
1
1
1
1
1
1
1
1
1
1
1
1
1
1
1
1
1
1
1
1
1
1
1
1
1
1
1
1
1
1
1
1
1
1
1
1
1
1
1
1
1
1
1
1
1
1
1
1
1
1
1
1
1
1
1
1
1
1
1
1
1
1
1
1
1
1
1
1
1
1
1
1
1
1
1
1
1
1
1
1
1
1
1
1
1
1
1
1
1
1
1
1
1
1
1
1
1
1
1
1
1
1
1
1
1
1
1
1
1
1
1
1
1
1
1
1
1
1
1
1
1
1
1
1
1
1
1
1
1
1
1
1
1
1
1
1
1
1
1
1
1
1
1
1
1
1
1
1
1
1
1
1
1
1
1
1
1
1
1
1
1
1
1
1
1
1
1
1
1
1
1
1
1
1
1
1
1
1
1
1
1
1
1
1
1
1
1
1
1
1
1
1
1
1
1
1
1
1
1
1
1
1
1
1
1
1
1
1
1
1
1
1
1
1
1
1
1
1
1
1
1
1
1
1
1
1
1
1
1
1
1
1
1
1
1
1
1
1
1
1
1
1
1
1
1
1
1
1
1
1
1
1
1
1
1
1
1
1
1
1
1
1
1
1
1
1
1
1
1
1
1
1
1
1
1
1
1
1
1
1
1
1
1
1
1
1
1
1
1
1
1
1
1
1
1
1
1
1
1
1
1
1
1
1
1
1
1
1
1
1
1
1
1
1
1
1
1
1
1
1
1
1
1
1
1
1
1
1
1
1
1
1
1
1
1
1
1
1
1
1
1
1
1
1
1
1
1
1
1
1
1
1
1
1
1
1
1
1
1
1
1
1
1
1
1
1
1
1
1
1
1
1
1
1
1
1
1
1
1
1
1
1
1
1
1
1
1
1
1
1
1
1
1
1
1
1
1
1
1
1
1
1
1
1
1
1
1
1
1
1
1
1
1
1
1
1
1
1
1
1
1
1
1
1
1
1
1
1
1
1
1
1
1
1
1
1
1
1
1
1
1
1
1
1
1
1
1
1
1
1
1
1
1
1
1
1
1
1
1
1
1
1
1
1
1
1
1
1
1
1
1
1
1
1
1
1
1
1
1
1
1
1
1
1
1
1
1
1
1
1
1
1
1
1
1
1
1
1
1
1
1
1
1
1
1
1
1
1
1
1
1
1
1
1
1
1
1
1
1
1
1
1
1
1
1
1
1
1
1
1
1
1
1
1
1
1
1
1
1
1
1
1
1
1
1
1
1
1
1
1
1
1
1
1
1
1
1
1
1
1
1
1
1
1
1
1
1
1
1
1
1
1
1
1
1
1
1
1
1
1
1
1
1
1
1
1
1
1
1
1
1
1
1
1
1
1
1
1
1
1
1
1
1
1
1
1
1
1
1
1
1
1
1
1
1
1
1
1
1
1
1
1
1
1
1
1
1
1
1
1
1
1
1
1
1
1
1
1
1
1
1
1
1
1
1
1
1
1
1
1
1
1
1
1
1
1
1
1
1
1
1
1
1
1
1
1
1
1
1
1
1
1
1
1
1
1
1
1
1
1
1
1
1
1
1
1
1
1
1
1
1
1
1
1
1
1
1
1
1
1
1
1
1
1
1
1
1
1
1
1
1
1
1
1
1
1
1
1
1
1
1
1
1
1
1
1
1
1
1
1
1
1
1
1
1
1
1
1
1
1
1
1
1
1
1
1
1
1
1
1
1
1
1
1
1
1
1
1
1
1
1
1
1
1
1
1
1
1
1
1
1
1
1
1
1
1
1
1
1
1
1
1
1
1
1
1
1
1
1
1
1
1
1
1
1
1
1
1
1
1
1
1
1
1
1
1
1
1
1
1
1
1
1
1
1
1
1
1
1
1
1
1
1
1
1
1
1
1
1
1
1
1
1
1
1
1
1
1
1
1
1
1
1
1
1
1
1
1
1
1
1
1
1
1
1
1
1
1
1
1
1
1
1
1
1
1
1
1
1
1
1
1
1
1
1
1
1
1
1
1
1
1
1
1
1
1
1
1
1
1
1
1
1
1
1
1
1
1
1
1
1
1
1
1
1
1
1
1
1
1
1
1
1
1
1
1
1
1
1
1
1
1
1
1
1
1
1
1
1
1
1
1
1
1
1
1
1
1
1
1
1
1
1
1
1
1
1
1
1
1
1
1
1
1
1
1
1
1
1
1
1
1
1
1
1
1
1
1
1
1
1
1
1
1
1
1
1
1
1
1
1
1
1
1
1
1
1
1
1
1
1
1
1
1
1
1
1
1
1
1
1
1
1
1
1
1
1
1
1
1
1
1
1
1
1
1
1
1
1
1
1
1
1
1
1
1
1
1
1
1
1
1
1
1
1
1
1
1
1
1
1
1
1
1
1
1
1
1
1
1
1
1
1
1
1
1
1
1
1
1
1
1
1
1
1
1
1
1
1
1
1
1
1
1
1
1
1
1
1
1
1
1
1
1
1
1
1
1
1
1
1
1
1
1
1
1
1
1
1
1
1
1
1
1
1
1
1
1
1
1
1
1
1
1
1
1
1
1
1
1
1
1
1
1
1
1
1
1
1
1
1
1
1
1
1
1
1
1
1
1
1
1
1
1
1
1
1
1
1
1
1
1
1
1
1
1
1
1
1
1
1
1
1
1
1
1
1
1
1
1
1
1
1
1
1
1
1
1
1
1
1
1
1
1
1
1
1
1
1
1
1
1
1
1
1
1
1
1
1
1
1
1
1
1
1
1
1
1
1
1
1
1
1
1
1
1
1
1
1
1
1
1
1
1
1
1
1
1
1
1
1
1
1
1
1
1
1
1
1
1
1
1
1
1
1
1
1
1
1
1
1
1
1
1
1
1
1
1
1
1
1
1
1
1
1
1
1
1
1
1
1
1
1
1
1
1
1
1
1
1
1
1
1
1
1
1
1
1
1
1
1
1
1
1
1
1
1
1
1
1
1
1
1
1
1
1
1
1
1
1
1
1
1
1
1
1
1
1
1
1
1
1
1.07127
1.16542
1.26602
1.35533
1.43267
1.52771
1.6193
1.66737
1.71642
1.7715
1.8003
1.81633
1.81184
1.79766
1.77671
1.74064
1.69419
1.65754
1.63747
1.60981
1.60284
1.60576
1.61226
1.61692
1.6205
1.62514
1.63351
1.64203
1.64314
1.6419
1.64054
1.64191
1.64551
1.64814
1.64798
1.64733
1.64679
1.64756
1.65014
1.65242
1.65374
1.65378
1.65317
1.65232
1.65107
1.64944
1.64865
1.64825
1.64808
1.64869
1.6508
1.65361
1.65564
1.65712
1.65833
1.65887
1.65871
1.65755
1.65517
1.65131
1.64845
1.64737
1.64693
1.64624
1.64482
1.64371
1.64249
1.64076
1.63884
1.63742
1.63645
1.6354
1.63376
1.63076
1.62782
1.62677
1.62672
1.62704
1.62866
1.63144
0.999998
0.999738
1.00107
1.02296
1.06148
1.09294
1.16669
1.26023
1.3151
1.38508
1.44615
1.50926
1.54209
1.57791
1.60727
1.61826
1.65769
1.68011
1.6843
1.6798
1.66471
1.66141
1.65899
1.65428
1.64787
1.63948
1.63964
1.6414
1.64233
1.64272
1.64369
1.64641
1.64984
1.65212
1.65266
1.65239
1.65139
1.65046
1.65083
1.65169
1.65278
1.65431
1.65552
1.65602
1.65627
1.65658
1.65648
1.65601
1.6546
1.65386
1.65388
1.65416
1.6546
1.65487
1.65557
1.6569
1.65814
1.65839
1.65773
1.65689
1.6561
1.65489
1.65325
1.65094
1.64738
1.64293
1.6396
1.63726
1.63631
1.63635
1.63648
1.63586
1.63457
1.6331
1.63144
1.62996
1.62943
1.62948
1.6303
1.63146
1
1
1
1
1
1
0.999777
1.00063
1.00558
1.0267
1.07169
1.1523
1.26932
1.38818
1.52511
1.63277
1.70696
1.75022
1.74534
1.73832
1.72773
1.71693
1.7063
1.69293
1.67119
1.65453
1.65394
1.6559
1.65589
1.6562
1.65833
1.66093
1.66357
1.66517
1.66543
1.66515
1.66458
1.66324
1.66201
1.66175
1.66084
1.66048
1.6617
1.66445
1.66691
1.66812
1.66829
1.66735
1.66558
1.66464
1.66399
1.6632
1.66219
1.66059
1.65908
1.65871
1.65911
1.6611
1.6639
1.66563
1.66554
1.66428
1.66218
1.65914
1.65443
1.64759
1.64187
1.63905
1.63792
1.63758
1.63832
1.63918
1.63892
1.63782
1.63625
1.63489
1.63415
1.63373
1.63384
1.63406
1
1
1
1
1
1
1
1
1
1
1
0.999753
1.00186
1.01677
1.08313
1.24891
1.4021
1.55564
1.62782
1.68076
1.71407
1.71267
1.70849
1.70963
1.70583
1.70028
1.69841
1.69628
1.69025
1.6844
1.67873
1.67464
1.67335
1.67454
1.67606
1.67801
1.6793
1.67931
1.67929
1.67852
1.67613
1.67351
1.67269
1.67335
1.67506
1.6766
1.67808
1.6794
1.67994
1.67952
1.67827
1.67641
1.67346
1.67061
1.66815
1.66692
1.66682
1.66723
1.66897
1.67237
1.67509
1.67502
1.67274
1.66911
1.66421
1.65694
1.64779
1.64372
1.64269
1.64221
1.64239
1.64373
1.64472
1.64459
1.64336
1.64172
1.64076
1.64021
1.63993
1.63936
1
1
1
1
1
1
1
1
1
1
1
1
1
1
0.999877
1.00043
1.00988
1.07108
1.22113
1.35754
1.50393
1.59762
1.69603
1.73798
1.7403
1.7398
1.73702
1.73214
1.72288
1.70156
1.68664
1.68204
1.68318
1.68622
1.68886
1.69061
1.69124
1.69073
1.69039
1.69014
1.68945
1.68772
1.68609
1.68597
1.686
1.68533
1.68465
1.68493
1.68659
1.68852
1.68925
1.68891
1.68791
1.68652
1.68418
1.68062
1.67821
1.67755
1.67746
1.67782
1.67941
1.68093
1.68033
1.67794
1.67393
1.6665
1.6573
1.65309
1.65184
1.65123
1.65101
1.65118
1.6516
1.65177
1.65102
1.64986
1.64921
1.64868
1.64775
1.64636
1
1
1
1
1
1
1
1
1
1
1
1
1
1
1
1
1
0.999929
1.00028
1.00589
1.05441
1.18229
1.33179
1.4889
1.5798
1.66346
1.70115
1.70544
1.70495
1.70259
1.69675
1.69565
1.69784
1.70055
1.69999
1.6994
1.69725
1.69456
1.692
1.69227
1.69309
1.69361
1.69393
1.69428
1.69367
1.69263
1.69002
1.68868
1.68859
1.6898
1.69343
1.69718
1.69842
1.69827
1.69774
1.69616
1.69152
1.68744
1.6862
1.68529
1.68418
1.68342
1.68334
1.68215
1.6789
1.67375
1.66764
1.66335
1.66165
1.66068
1.66012
1.65969
1.65945
1.65936
1.6587
1.65759
1.65693
1.65635
1.65533
1.65351
1
1
1
1
1
1
1
1
1
1
1
1
1
1
1
1
1
1
1
1
0.999966
1.00012
1.00482
1.05255
1.16429
1.29778
1.44842
1.5536
1.65769
1.69155
1.70201
1.7115
1.71117
1.70906
1.70452
1.69346
1.68349
1.68272
1.68534
1.6896
1.69354
1.69825
1.70092
1.70107
1.69866
1.69381
1.68957
1.68815
1.68829
1.68878
1.69062
1.69539
1.7008
1.70295
1.70319
1.70295
1.70172
1.69745
1.692
1.68882
1.6868
1.68524
1.68418
1.68332
1.6809
1.67731
1.67423
1.67174
1.66941
1.66762
1.66684
1.66625
1.66564
1.66512
1.66434
1.66351
1.66268
1.66186
1.66107
1.65906
1
1
1
1
1
1
1
1
1
1
1
1
1
1
1
1
1
1
1
1
1
1
0.999998
0.99998
1.00013
1.00371
1.04696
1.1485
1.28432
1.43932
1.54321
1.64615
1.67365
1.67975
1.68426
1.68186
1.6765
1.67677
1.68367
1.68914
1.69349
1.69599
1.69687
1.69716
1.69791
1.6977
1.69447
1.68999
1.68829
1.68789
1.68816
1.68968
1.69272
1.6971
1.70105
1.7028
1.70251
1.70158
1.69938
1.69599
1.69177
1.68692
1.68455
1.68301
1.68053
1.67759
1.67576
1.67437
1.6731
1.67184
1.67031
1.66929
1.66853
1.66773
1.66701
1.66634
1.66553
1.66467
1.66379
1.66184
1
1
1
1
1
1
1
1
1
1
1
1
1
1
1
1
1
1
1
1
1
1
1
1
1
0.999999
0.999965
1.00021
1.00436
1.0524
1.15045
1.29576
1.439
1.54842
1.63814
1.66065
1.67182
1.67801
1.68452
1.6849
1.68106
1.6787
1.68144
1.68837
1.69129
1.69169
1.69299
1.6951
1.69488
1.69264
1.68808
1.68472
1.68472
1.68673
1.68933
1.6923
1.69591
1.6982
1.69863
1.69877
1.69742
1.6922
1.68573
1.6826
1.67974
1.67652
1.67443
1.67358
1.673
1.67222
1.67053
1.66897
1.66802
1.6674
1.66687
1.66631
1.66603
1.66538
1.66443
1.66271
1
1
1
1
1
1
1
1
1
1
1
1
1
1
1
1
1
1
1
1
1
1
1
1
1
1
1
1
1
0.999977
1.00037
1.00658
1.06284
1.15767
1.2995
1.43969
1.56322
1.64219
1.65464
1.65774
1.66396
1.6582
1.65722
1.66329
1.67463
1.68291
1.6877
1.68959
1.69049
1.69061
1.69009
1.68783
1.68256
1.67974
1.68004
1.68134
1.68353
1.68857
1.69413
1.69566
1.69523
1.69349
1.68903
1.68275
1.67721
1.67284
1.67096
1.67052
1.67017
1.66969
1.66853
1.66781
1.66769
1.66761
1.66758
1.66692
1.66586
1.6649
1.6639
1.6623
1
1
1
1
1
1
1
1
1
1
1
1
1
1
1
1
1
1
1
1
1
1
1
1
1
1
1
1
1
1
0.999999
0.999996
1.00003
1.00063
1.01012
1.07361
1.1849
1.34645
1.47179
1.58869
1.64503
1.64951
1.64811
1.64961
1.65146
1.65642
1.66484
1.67546
1.68238
1.68364
1.68384
1.68614
1.68706
1.68323
1.67665
1.67417
1.67466
1.67767
1.68161
1.68592
1.68884
1.68857
1.68564
1.68147
1.67503
1.66843
1.66676
1.66669
1.66673
1.66658
1.66575
1.66558
1.66571
1.66582
1.66647
1.66715
1.66651
1.66505
1.66364
1.6607
1
1
1
1
1
1
1
1
1
1
1
1
1
1
1
1
1
1
1
1
1
1
1
1
1
1
1
1
1
1
1
1
1
1
0.999988
1.00008
1.00159
1.02489
1.0978
1.22837
1.38713
1.52058
1.61063
1.63895
1.64081
1.64488
1.64362
1.64641
1.65524
1.66894
1.67836
1.68243
1.68292
1.6811
1.67849
1.67567
1.67293
1.6718
1.67291
1.67511
1.6773
1.67904
1.67874
1.67615
1.67081
1.66413
1.66321
1.66355
1.66391
1.66373
1.66234
1.66142
1.66159
1.66197
1.66304
1.66488
1.6651
1.66367
1.66175
1.65785
1
1
1
1
1
1
1
1
1
1
1
1
1
1
1
1
1
1
1
1
1
1
1
1
1
1
1
1
1
1
1
1
1
1
1
1
1
0.999998
1.00026
1.0044
1.04583
1.14127
1.29684
1.43367
1.56851
1.63324
1.63891
1.63858
1.63648
1.64073
1.65526
1.66752
1.67152
1.67353
1.6732
1.67251
1.67325
1.67341
1.67101
1.66911
1.66941
1.67044
1.66975
1.66807
1.66434
1.65889
1.65846
1.65884
1.66002
1.66024
1.65963
1.65711
1.65619
1.65659
1.65742
1.65943
1.66129
1.66084
1.65838
1.65296
1
1
1
1
1
1
1
1
1
1
1
1
1
1
1
1
1
1
1
1
1
1
1
1
1
1
1
1
1
1
1
1
1
1
1
1
1
1
1
0.999994
1.00005
1.00097
1.01573
1.0724
1.20952
1.38691
1.5314
1.61563
1.63122
1.63335
1.64141
1.64238
1.64503
1.65185
1.66159
1.66894
1.672
1.67272
1.67247
1.66992
1.66727
1.66528
1.66368
1.66206
1.6582
1.65321
1.65289
1.6533
1.65478
1.65621
1.65613
1.65447
1.65107
1.65015
1.6503
1.65088
1.65294
1.65459
1.65334
1.64699
1
1
1
1
1
1
1
1
1
1
1
1
1
1
1
1
1
1
1
1
1
1
1
1
1
1
1
1
1
1
1
1
1
1
1
1
1
1
1
1
1
1
0.999996
1.0002
1.00492
1.05365
1.15723
1.32235
1.46973
1.59026
1.63778
1.6379
1.63948
1.63638
1.64116
1.65613
1.66695
1.66828
1.66807
1.66546
1.66263
1.66217
1.6622
1.66052
1.65517
1.64867
1.64778
1.64828
1.64914
1.65106
1.65287
1.65259
1.64981
1.64453
1.64189
1.64131
1.6422
1.64516
1.64582
1.6405
1
1
1
1
1
1
1
1
1
1
1
1
1
1
1
1
1
1
1
1
1
1
1
1
1
1
1
1
1
1
1
1
1
1
1
1
1
1
1
1
1
1
1
1
0.999993
1.00014
1.00181
1.02513
1.1065
1.26875
1.42324
1.57558
1.63775
1.63355
1.63951
1.65049
1.65655
1.6569
1.65776
1.65641
1.65545
1.65612
1.65903
1.65847
1.65463
1.64757
1.64131
1.63987
1.63996
1.6415
1.64596
1.64843
1.64778
1.64359
1.63633
1.63262
1.63197
1.63338
1.63611
1.63355
1
1
1
1
1
1
1
1
1
1
1
1
1
1
1
1
1
1
1
1
1
1
1
1
1
1
1
1
1
1
1
1
1
1
1
1
1
1
1
1
1
1
1
1
0.999999
1
0.999997
1.00002
1.00078
1.013
1.0809
1.24202
1.43398
1.54538
1.62069
1.65146
1.65416
1.65532
1.6566
1.65409
1.65052
1.65067
1.65449
1.65785
1.6563
1.65101
1.64175
1.63399
1.63237
1.63227
1.63446
1.64122
1.64352
1.64182
1.63552
1.62725
1.6235
1.62296
1.62504
1.62536
1
1
1
1
1
1
1
1
1
1
1
1
1
1
1
1
1
1
1
1
1
1
1
1
1
1
1
1
1
1
1
1
1
1
1
1
1
1
1
1
1
1
1
1
1
1
1
1
1
0.999997
1.00063
1.00923
1.08849
1.24494
1.39894
1.51481
1.60426
1.65664
1.66139
1.65875
1.65418
1.65305
1.65426
1.657
1.65672
1.65431
1.64948
1.64002
1.62929
1.62632
1.62615
1.62922
1.63668
1.63797
1.63446
1.62588
1.61821
1.61552
1.6156
1.61852
1
1
1
1
1
1
1
1
1
1
1
1
1
1
1
1
1
1
1
1
1
1
1
1
1
1
1
1
1
1
1
1
1
1
1
1
1
1
1
1
1
1
1
1
1
1
1
1
1
1
1
0.999996
1.00083
1.01034
1.05763
1.21484
1.39348
1.54579
1.6045
1.63907
1.65081
1.65173
1.64843
1.6484
1.65277
1.65435
1.65227
1.64818
1.63922
1.62597
1.62115
1.6215
1.62478
1.63046
1.63034
1.62579
1.61762
1.61134
1.61029
1.61226
1
1
1
1
1
1
1
1
1
1
1
1
1
1
1
1
1
1
1
1
1
1
1
1
1
1
1
1
1
1
1
1
1
1
1
1
1
1
1
1
1
1
1
1
1
1
1
1
1
1
1
1
1
1
1.00033
1.0089
1.06228
1.23453
1.42255
1.57418
1.63128
1.63199
1.63129
1.62825
1.62849
1.63927
1.64871
1.64881
1.64505
1.63685
1.62401
1.6161
1.6156
1.61852
1.62414
1.62376
1.61959
1.61261
1.60765
1.60788
1
1
1
1
1
1
1
1
1
1
1
1
1
1
1
1
1
1
1
1
1
1
1
1
1
1
1
1
1
1
1
1
1
1
1
1
1
1
1
1
1
1
1
1
1
1
1
1
1
1
1
1
1
1
0.999999
1
1.00054
1.01366
1.0838
1.25921
1.46113
1.60823
1.6438
1.6381
1.62049
1.61838
1.62662
1.64107
1.64333
1.64019
1.63104
1.61718
1.61017
1.60996
1.61485
1.62069
1.6204
1.61673
1.60992
1.60593
1
1
1
1
1
1
1
1
1
1
1
1
1
1
1
1
1
1
1
1
1
1
1
1
1
1
1
1
1
1
1
1
1
1
1
1
1
1
1
1
1
1
1
1
1
1
1
1
1
1
1
1
1
1
1
1
0.999999
1.00002
1.00098
1.01918
1.11619
1.32421
1.51391
1.62356
1.62669
1.61583
1.61056
1.61842
1.63521
1.63789
1.63502
1.62583
1.61238
1.60658
1.60688
1.61301
1.61871
1.61834
1.61554
1.60899
1
1
1
1
1
1
1
1
1
1
1
1
1
1
1
1
1
1
1
1
1
1
1
1
1
1
1
1
1
1
1
1
1
1
1
1
1
1
1
1
1
1
1
1
1
1
1
1
1
1
1
1
1
1
1
1
1
1
0.999998
1.00006
1.00233
1.03773
1.16424
1.3766
1.55597
1.61043
1.60193
1.59859
1.60922
1.63017
1.63277
1.6313
1.62355
1.61124
1.6047
1.60476
1.61055
1.6179
1.61786
1.61473
1
1
1
1
1
1
1
1
1
1
1
1
1
1
1
1
1
1
1
1
1
1
1
1
1
1
1
1
1
1
1
1
1
1
1
1
1
1
1
1
1
1
1
1
1
1
1
1
1
1
1
1
1
1
1
1
1
1
1
1
0.999998
1.00021
1.0059
1.06331
1.22702
1.42674
1.55879
1.5794
1.58478
1.59872
1.62337
1.62864
1.62762
1.62377
1.61209
1.60361
1.60364
1.60847
1.61723
1.61708
1
1
1
1
1
1
1
1
1
1
1
1
1
1
1
1
1
1
1
1
1
1
1
1
1
1
1
1
1
1
1
1
1
1
1
1
1
1
1
1
1
1
1
1
1
1
1
1
1
1
1
1
1
1
1
1
1
1
1
1
1
0.999999
1.00001
1.00068
1.01421
1.08954
1.26472
1.44879
1.54519
1.56743
1.58521
1.6106
1.62562
1.62527
1.62388
1.61426
1.60283
1.6023
1.60677
1.61556
1
1
1
1
1
1
1
1
1
1
1
1
1
1
1
1
1
1
1
1
1
1
1
1
1
1
1
1
1
1
1
1
1
1
1
1
1
1
1
1
1
1
1
1
1
1
1
1
1
1
1
1
1
1
1
1
1
1
1
1
1
1
1
0.999999
1.00004
1.00157
1.02292
1.11809
1.29949
1.47271
1.5406
1.56773
1.59438
1.62034
1.62305
1.62291
1.61537
1.60307
1.60165
1.60706
1
1
1
1
1
1
1
1
1
1
1
1
1
1
1
1
1
1
1
1
1
1
1
1
1
1
1
1
1
1
1
1
1
1
1
1
1
1
1
1
1
1
1
1
1
1
1
1
1
1
1
1
1
1
1
1
1
1
1
1
1
1
1
1
1
0.999999
1.00012
1.00333
1.03597
1.1531
1.34488
1.48572
1.5394
1.5761
1.6124
1.62157
1.62131
1.61751
1.60448
1.60297
1
1
1
1
1
1
1
1
1
1
1
1
1
1
1
1
1
1
1
1
1
1
1
1
1
1
1
1
1
1
1
1
1
1
1
1
1
1
1
1
1
1
1
1
1
1
1
1
1
1
1
1
1
1
1
1
1
1
1
1
1
1
1
1
1
1
1
1
1.00031
1.0066
1.0528
1.19634
1.38293
1.49173
1.54829
1.59528
1.62021
1.62011
1.61805
1.60601
1
1
1
1
1
1
1
1
1
1
1
1
1
1
1
1
1
1
1
1
1
1
1
1
1
1
1
1
1
1
1
1
1
1
1
1
1
1
1
1
1
1
1
1
1
1
1
1
1
1
1
1
1
1
1
1
1
1
1
1
1
1
1
1
1
1
1
1
1
1.00001
1.00069
1.01251
1.07701
1.24548
1.41279
1.51076
1.57337
1.6152
1.6167
1.615
1
1
1
1
1
1
1
1
1
1
1
1
1
1
1
1
1
1
1
1
1
1
1
1
1
1
1
1
1
1
1
1
1
1
1
1
1
1
1
1
1
1
1
1
1
1
1
1
1
1
1
1
1
1
1
1
1
1
1
1
1
1
1
1
1
1
1
1
1
1
0.999999
1.00005
1.00167
1.02169
1.12023
1.31322
1.45677
1.53872
1.60112
1.6134
1
1
1
1
1
1
1
1
1
1
1
1
1
1
1
1
1
1
1
1
1
1
1
1
1
1
1
1
1
1
1
1
1
1
1
1
1
1
1
1
1
1
1
1
1
1
1
1
1
1
1
1
1
1
1
1
1
1
1
1
1
1
1
1
1
1
1
1
1
1
1
1
1
1.00016
1.00493
1.04524
1.19311
1.37024
1.50145
1.58348
1
1
1
1
1
1
1
1
1
1
1
1
1
1
1
1
1
1
1
1
1
1
1
1
1
1
1
1
1
1
1
1
1
1
1
1
1
1
1
1
1
1
1
1
1
1
1
1
1
1
1
1
1
1
1
1
1
1
1
1
1
1
1
1
1
1
1
1
1
1
1
1
1
1
1.00001
1.00069
1.01318
1.09117
1.25109
1.50125
1
1
1
1
1
1
1
1
1
1
1
1
1
1
1
1
1
1
1
1
1
1
1
1
1
1
1
1
1
1
1
1
1
1
1
1
1
1
1
1
1
1
1
1
1
1
1
1
1
1
1
1
1
1
1
1
1
1
1
1
1
1
1
1
1
1
1
1
1
1
1
1
1
1
1
1
1.00007
1.00294
1.02734
1.29508
1
1
1
1
1
1
1
1
1
1
1
1
1
1
1
1
1
1
1
1
1
1
1
1
1
1
1
1
1
1
1
1
1
1
1
1
1
1
1
1
1
1
1
1
1
1
1
1
1
1
1
1
1
1
1
1
1
1
1
1
1
1
1
1
1
1
1
1
1
1
1
1
1
1
1
1
1
1.00001
1.0004
1.06067
1
1
1
1
1
1
1
1
1
1
1
1
1
1
1
1
1
1
1
1
1
1
1
1
1
1
1
1
1
1
1
1
1
1
1
1
1
1
1
1
1
1
1
1
1
1
1
1
1
1
1
1
1
1
1
1
1
1
1
1
1
1
1
1
1
1
1
1
1
1
1
1
1
1
1
1
1
1
1
1.003
1
1
1
1
1
1
1
1
1
1
1
1
1
1
1
1
1
1
1
1
1
1
1
1
1
1
1
1
1
1
1
1
1
1
1
1
1
1
1
1
1
1
1
1
1
1
1
1
1
1
1
1
1
1
1
1
1
1
1
1
1
1
1
1
1
1
1
1
1
1
1
1
1
1
1
1
1
1
1
1.00004
1
1
1
1
1
1
1
1
1
1
1
1
1
1
1
1
1
1
1
1
1
1
1
1
1
1
1
1
1
1
1
1
1
1
1
1
1
1
1
1
1
1
1
1
1
1
1
1
1
1
1
1
1
1
1
1
1
1
1
1
1
1
1
1
1
1
1
1
1
1
1
1
1
1
1
1
1
1
1
1
1
1
1
1
1
1
1
1
1
1
1
1
1
1
1
1
1
1
1
1
1
1
1
1
1
1
1
1
1
1
1
1
1
1
1
1
1
1
1
1
1
1
1
1
1
1
1
1
1
1
1
1
1
1
1
1
1
1
1
1
1
1
1
1
1
1
1
1
1
1
1
1
1
1
1
1
1
1
1
1
1
1
1
1
1
1
1
1
1
1
1
1
1
1
1
1
1
1
1
1
1
1
1
1
1
1
1
1
1
1
1
1
1
1
1
1
1
1
1
1
1
1
1
1
1
1
1
1
1
1
1
1
1
1
1
1
1
1
1
1
1
1
1
1
1
1
1
1
1
1
1
1
1
1
1
1
1
1
1
1
1
1
1
1
1
1
1
1
1
1
1
1
1
1
1
1
1
1
1
1
1
1
1
1
1
1
1
1
1
1
1
1
1
1
1
1
1
1
1
1
1
1
1
1
1
1
1
1
1
1
1
1
1
1
1
1
1
1
1
1
1
1
1
1
1
1
1
1
1
1
1
1
1
1
1
1
1
1
1
1
)
;

boundaryField
{
    inlet
    {
        type            fixedValue;
        value           uniform 1;
    }
    outlet
    {
        type            zeroGradient;
    }
    bottom
    {
        type            symmetryPlane;
    }
    top
    {
        type            symmetryPlane;
    }
    obstacle
    {
        type            zeroGradient;
    }
    defaultFaces
    {
        type            empty;
    }
}


// ************************************************************************* //
