/*--------------------------------*- C++ -*----------------------------------*\
| =========                 |                                                 |
| \\      /  F ield         | OpenFOAM: The Open Source CFD Toolbox           |
|  \\    /   O peration     | Version:  2206                                  |
|   \\  /    A nd           | Website:  www.openfoam.com                      |
|    \\/     M anipulation  |                                                 |
\*---------------------------------------------------------------------------*/
FoamFile
{
    version     2.0;
    format      ascii;
    arch        "LSB;label=32;scalar=64";
    class       volScalarField;
    location    "0.06";
    object      p;
}
// * * * * * * * * * * * * * * * * * * * * * * * * * * * * * * * * * * * * * //

dimensions      [1 -1 -2 0 0 0 0];

internalField   nonuniform List<scalar> 
4800
(
1
1
1
1
1
1
1
1
1
1
1
1
1
1
1
1
1
1
1
1
1
1
1
1
1
1
1
1
1
1
1
1
1
1
1
1
1
1
1
1
1
1
1
1
1
1
1
1
1
1
1
1
1
1
1
1
1
1
1
1
1
1
1
1
1
1
1
1
1
1
1
1
1
1
1
1
1
1
1
1
1
1
1
1
1
1
1
1
1
1
1
1
1
1
1
1
1
1
1
1
1
1
1
1
1
1
1
1
1
1
1
1
1
1
1
1
1
1
1
1
1
1
1
1
1
1
1
1
1
1
1
1
1
1
1
1
1
1
1
1
1
1
1
1
1
1
1
1
1
1
1
1
1
1
1
1
1
1
1
1
1
1
1
1
1
1
1
1
1
1
1
1
1
1
1
1
1
1
1
1
1
1
1
1
1
1
1
1
1
1
1
1
1
1
1
1
1
1
1
1
1
1
1
1
1
1
1
1
1
1
1
1
1
1
1
1
1
1
1
1
1
1
1
1
1
1
1
1
1
1
1
1
1
1
1
1
1
1
1
1
1
1
1
1
1
1
1
1
1
1
1
1
1
1
1
1
1
1
1
1
1
1
1
1
1
1
1
1
1
1
1
1
1
1
1
1
1
1
1
1
1
1
1
1
1
1
1
1
1
1
1
1
1
1
1
1
1
1
1
1
1
1
1
1
1
1
1
1
1
1
1
1
1
1
1
1
1
1
1
1
1
1
1
1
1
1
1
1
1
1
1
1
1
1
1
1
1
1
1
1
1
1
1
1
1
1
1
1
1
1
1
1
1
1
1
1
1
1
1
1
1
1
1
1
1
1
1
1
1
1
1
1
1
1
1
1
1
1
1
1
1
1
1
1
1
1
1
1
1
1
1
1
1
1
1
1
1
1
1
1
1
1
1
1
1
1
1
1
1
1
1
1
1
1
1
1
1
1
1
1
1
1
1
1
1
1
1
1
1
1
1
1
1
1
1
1
1
1
1
1
1
1
1
1
1
1
1
1
1
1
1
1
1
1
1
1
1
1
1
1
1
1
1
1
1
1
1
1
1
1
1
1
1
1
1
1
1
1
1
1
1
1
1
1
1
1
1
1
1
1
1
1
1
1
1
1
1
1
1
1
1
1
1
1
1
1
1
1
1
1
1
1
1
1
1
1
1
1
1
1
1
1
1
1
1
1
1
1
1
1
1
1
1
1
1
1
1
1
1
1
1
1
1
1
1
1
1
1
1
1
1
1
1
1
1
1
1
1
1
1
1
1
1
1
1
1
1
1
1
1
1
1
1
1
1
1
1
1
1
1
1
1
1
1
1
1
1
1
1
1
1
1
1
1
1
1
1
1
1
1
1
1
1
1
1
1
1
1
1
1
1
1
1
1
1
1
1
1
1
1
1
1
1
1
1
1
1
1
1
1
1
1
1
1
1
1
1
1
1
1
1
1
1
1
1
1
1
1
1
1
1
1
1
1
1
1
1
1
1
1
1
1
1
1
1
1
1
1
1
1
1
1
1
1
1
1
1
1
1
1
1
1
1
1
1
1
1
1
1
1
1
1
1
1
1
1
1
1
1
1
1
1
1
1
1
1
1
1
1
1
1
1
1
1
1
1
1
1
1
1
1
1
1
1
1
1
1
1
1
1
1
1
1
1
1
1
1
1
1
1
1
1
1
1
1
1
1
1
1
1
1
1
1
1
1
1
1
1
1
1
1
1
1
1
1
1
1
1
1
1
1
1
1
1
1
1
1
1
1
1
1
1
1
1
1
1
1
1
1
1
1
1
1
1
1
1
1
1
1
1
1
1
1
1
1
1
1
1
1
1
1
1
1
1
1
1
1
1
1
1
1
1
1
1
1
1
1
1
1
1
1
1
1
1
1
1
1
1
1
1
1
1
1
1
1
1
1
1
1
1
1
1
1
1
1
1
1
1
1
1
1
1
1
1
1
1
1
1
1
1
1
1
1
1
1
1
1
1
1
1
1
1
1
1
1
1
1
1
1
1
1
1
1
1
1
1
1
1
1
1
1
1
1
1
1
1
1
1
1
1
1
1
1
1
1
1
1
1
1
1
1
1
1
1
1
1
1
1
1
1
1
1
1
1
1
1
1
1
1
1
1
1
1
1
1
1
1
1
1
1
1
1
1
1
1
1
1
1
1
1
1
1
1
1
1
1
1
1
1
1
1
1
1
1
1
1
1
1
1
1
1
1
1
1
1
1
1
1
1
1
1
1
1
1
1
1
1
1
1
1
1
1
1
1
1
1
1
1
1
1
1
1
1
1
1
1
1
1
1
1
1
1
1
1
1
1
1
1
1
1
1
1
1
1
1
1
1
1
1
1
1
1
1
1
1
1
1
1
1
1
1
1
1
1
1
1
1
1
1
1
1
1
1
1
1
1
1
1
1
1
1
1
1
1
1
1
1
1
1
1
1
1
1
1
1
1
1
1
1
1
1
1
1
1
1
1
1
1
1
1
1
1
1
1
1
1
1
1
1
1
1
1
1
1
1
1
1
1
1
1
1
1
1
1
1
1
1
1
1
1
1
1
1
1
1
1
1
1
1
1
1
1
1
1
1
1
1
1
1
1
1
1
1
1
1
1
1
1
1
1
1
1
1
1
1
1
1
1
1
1
1
1
1
1
1
1
1
1
1
1
1
1
1
1
1
1
1
1
1
1
1
1
1
1
1
1
1
1
1
1
1
1
1
1
1
1
1
1
1
1
1
1
1
1
1
1
1
1
1
1
1
1
1
1
1
1
1
1
1
1
1
1
1
1
1
1
1
1
1
1
1
1
1
1
1
1
1
1
1
1
1
1
1
1
1
1
1
1
1
1
1
1
1
1
1
1
1
1
1
1
1
1
1
1
1
1
1
1
1
1
1
1
1
1
1
1
1
1
1
1
1
1
1
1
1
1
1
1
1
1
1
1
1
1
1
1
1
1
1
1
1
1
1
1
1
1
1
1
1
1
1
1
1
1
1
1
1
1
1
1
1
1
1
1
1
1
1
1
1
1
1
1
1
1
1
1
1
1
1
1
1
1
1
1
1
1
1
1
1
1
1
1
1
1
1
1
1
1
1
1
1
1
1
1
1
1
1
1
1
1
1
1
1
1
1
1
1
1
1
1
1
1
1
1
1
1
1
1
1
1
1
1
1
1
1
1
1
1
1
1
1
1
1
1
1
1
1
1
1
1
1
1
1
1
1
1
1
1
1
1
1
1
1
1
1
1
1
1
1
1
1
1
1
1
1
1
1
1
1
1
1
1
1
1
1
1
1
1
1
1
1
1
1
1
1
1
1
1
1
1
1
1
1
1
1
1
1
1
1
1
1
1
1
1
1
1
1
1
1
1
1
1
1
1
1
1
1
1
1
1
1
1
1
1
1
1
1
1
1
1
1
1
1
1
1
1
1
1
1
1
1
1
1
1
1
1
1
1
1
1
1
1
1
1
1
1
1
1
1
1
1
1
1
1
1
1
1
1
1
1
1
1
1
1
1
1
1
1
1
1
1
1
1
1
1
1
1
1
1
1
1
1
1
1
1
1
1
1
1
1
1
1
1
1
1
1
1
1
1
1
1
1
1
1
1
1
1
1
1
1
1.26198
1.67424
2.20212
2.73971
3.27402
3.95221
4.70519
5.13975
5.4696
6.01114
6.68423
6.73788
6.62983
6.62242
6.53695
6.28951
5.8239
5.22705
4.79625
4.68428
4.54114
4.34252
4.32342
4.36243
4.38718
4.40633
4.43452
4.45942
4.5121
4.58717
4.66522
4.70671
4.7028
4.67951
4.64748
4.63798
4.64258
4.64422
4.64862
4.66547
4.69003
4.707
4.71395
4.71321
4.7106
4.71144
4.71225
4.70853
4.69054
4.65527
4.62667
4.61446
4.60344
4.58218
4.55266
4.52224
4.49322
4.46653
4.45296
4.44848
4.44591
4.44349
4.44239
4.44181
4.4413
4.44023
4.43849
4.43545
4.42577
4.4167
4.41393
4.43041
4.47109
4.47543
4.46151
4.45016
4.4494
4.45072
4.4514
4.45237
1
0.999413
0.998668
1.04
1.11573
1.18682
1.36374
1.70367
2.06119
2.37794
2.88892
3.44154
3.77196
4.2082
4.55465
4.72133
4.78767
4.951
5.05175
5.10113
5.06641
4.89369
4.80293
4.79512
4.74383
4.65946
4.58952
4.52546
4.51609
4.52555
4.54388
4.58535
4.62263
4.63487
4.64265
4.65084
4.66406
4.67578
4.68
4.67719
4.66298
4.65353
4.65285
4.6585
4.67725
4.70647
4.71994
4.71949
4.71427
4.69657
4.66228
4.62474
4.5912
4.55244
4.50928
4.47973
4.46504
4.45784
4.45254
4.44927
4.44776
4.44641
4.44536
4.44467
4.44274
4.4379
4.43158
4.42627
4.41868
4.41077
4.40828
4.42612
4.46104
4.4627
4.45316
4.44878
4.45014
4.45244
4.45358
4.45488
1
1
0.999999
1
1
1
1
0.999208
1.00265
1.01973
1.07202
1.27148
1.55584
1.98492
2.74188
3.56752
4.47916
4.90636
5.4057
5.49841
5.4577
5.35802
5.25614
5.16661
5.0518
4.81793
4.64268
4.56503
4.51385
4.49937
4.50684
4.54124
4.57757
4.60206
4.62586
4.64917
4.67443
4.69226
4.69962
4.69794
4.68678
4.65706
4.63543
4.62979
4.63677
4.66656
4.71298
4.7355
4.73506
4.71849
4.68403
4.64566
4.60587
4.55709
4.50329
4.46519
4.45195
4.44741
4.44405
4.44282
4.44348
4.44612
4.44908
4.45056
4.45015
4.44753
4.44038
4.42897
4.41947
4.41401
4.41535
4.43585
4.46434
4.46333
4.45432
4.44999
4.45225
4.45552
4.45708
4.45925
1
1
1
1
1
1
1
1
1
1
1
1
0.999298
1.00133
1.05596
1.2287
1.66259
2.36286
3.1828
4.1521
4.49957
4.79863
4.94418
4.90388
4.91108
4.98009
4.96031
4.91026
4.82469
4.73094
4.67463
4.64274
4.56884
4.51858
4.51818
4.53876
4.59449
4.66212
4.69545
4.70204
4.70282
4.68635
4.66374
4.64356
4.63184
4.63465
4.6578
4.69241
4.71036
4.70951
4.69746
4.66731
4.62066
4.56699
4.50689
4.46824
4.45683
4.45075
4.44513
4.44274
4.44167
4.44111
4.44147
4.44302
4.44698
4.44853
4.43884
4.42224
4.41054
4.41249
4.42065
4.4407
4.4673
4.46489
4.45554
4.45057
4.45138
4.45458
4.45615
4.45933
1
1
1
1
1
1
1
1
1
1
1
1
1
1
1
1
0.998976
1.02271
1.11723
1.47523
2.20064
2.87964
3.71932
4.22201
4.70006
5.07014
5.08479
5.08039
5.06163
5.0071
4.90603
4.75793
4.62691
4.53303
4.5187
4.53236
4.57405
4.61498
4.6508
4.66933
4.6798
4.68838
4.6877
4.67851
4.65874
4.65792
4.67296
4.67787
4.67574
4.67392
4.66471
4.64143
4.60053
4.54661
4.49436
4.47694
4.4719
4.46636
4.45794
4.45309
4.44884
4.44328
4.43876
4.43459
4.43211
4.42883
4.4217
4.41399
4.41527
4.41879
4.42564
4.4464
4.46771
4.46068
4.45096
4.44831
4.45102
4.45546
4.4565
4.45864
1
1
1
1
1
1
1
1
1
1
1
1
1
1
1
1
1
0.999999
1
0.999184
1.0162
1.07477
1.31521
1.92748
2.602
3.42573
3.91874
4.40963
4.76483
4.78192
4.79304
4.82612
4.80956
4.72443
4.66616
4.65737
4.64473
4.63022
4.61003
4.60618
4.60933
4.6331
4.66153
4.66737
4.66902
4.6922
4.70443
4.69458
4.66658
4.64565
4.63285
4.61214
4.57351
4.527
4.49685
4.48651
4.48398
4.47868
4.46677
4.45658
4.44993
4.44285
4.43399
4.42342
4.41373
4.41248
4.42516
4.42958
4.41965
4.41654
4.42222
4.45054
4.46459
4.45365
4.44692
4.44547
4.44655
4.45184
4.45326
4.45542
1
1
1
1
1
1
1
1
1
1
1
1
1
1
1
1
1
1
1
1
1
1
0.999427
1.00633
1.04519
1.25059
1.7547
2.37802
3.21456
3.79038
4.38271
4.7666
4.84545
4.8603
4.84437
4.80371
4.74799
4.66285
4.56686
4.54291
4.54977
4.58265
4.62113
4.66421
4.70427
4.7156
4.70741
4.68399
4.65126
4.62949
4.62068
4.60461
4.56294
4.51009
4.49126
4.48592
4.48255
4.47568
4.46309
4.45579
4.45011
4.44319
4.43274
4.41882
4.40631
4.40541
4.4227
4.43665
4.43579
4.43229
4.43758
4.45901
4.45709
4.44281
4.44183
4.44449
4.44426
4.44864
4.45057
4.45184
1
1
1
1
1
1
1
1
1
1
1
1
1
1
1
1
1
1
1
1
1
1
1
1
1
0.999541
1.00298
1.02948
1.22045
1.66441
2.21736
2.99189
3.61938
4.31767
4.62778
4.63117
4.67293
4.69214
4.63799
4.58482
4.58401
4.59344
4.60741
4.63665
4.68011
4.70178
4.71039
4.71338
4.69865
4.6577
4.62719
4.60327
4.56661
4.51318
4.48186
4.467
4.45774
4.4541
4.45211
4.44589
4.43988
4.43418
4.42493
4.41149
4.39864
4.39429
4.41123
4.43355
4.44114
4.43873
4.44455
4.45912
4.44443
4.42631
4.42721
4.43365
4.43604
4.44222
4.44603
4.44769
1
1
1
1
1
1
1
1
1
1
1
1
1
1
1
1
1
1
1
1
1
1
1
1
1
1
1
1
0.999613
1.00183
1.02164
1.19104
1.57944
2.21358
2.99146
3.62599
4.33236
4.59162
4.69081
4.71434
4.70196
4.6498
4.59553
4.57421
4.5701
4.61091
4.68257
4.70682
4.70812
4.70464
4.69023
4.65757
4.60329
4.5261
4.46693
4.45006
4.44368
4.44018
4.43982
4.44477
4.45006
4.45176
4.44895
4.43624
4.42061
4.40661
4.40208
4.41877
4.43061
4.43691
4.44697
4.44663
4.43235
4.42925
4.43688
4.4441
4.44081
4.44509
4.45012
4.45243
1
1
1
1
1
1
1
1
1
1
1
1
1
1
1
1
1
1
1
1
1
1
1
1
1
1
1
1
1
1
1
0.999719
1.00165
1.02664
1.22194
1.58901
2.17349
2.95421
3.64796
4.38629
4.59873
4.55529
4.59646
4.59344
4.5386
4.53625
4.59129
4.68379
4.71227
4.70552
4.67681
4.63884
4.59373
4.50914
4.44357
4.43839
4.43814
4.43944
4.44268
4.44557
4.44681
4.44709
4.44945
4.43723
4.41769
4.40147
4.39215
4.40268
4.41859
4.43309
4.45135
4.45226
4.43544
4.42858
4.43899
4.44414
4.43586
4.44105
4.44839
4.45242
1
1
1
1
1
1
1
1
1
1
1
1
1
1
1
1
1
1
1
1
1
1
1
1
1
1
1
1
1
1
1
0.999999
0.999996
1.00001
0.999914
1.00233
1.03095
1.23417
1.62703
2.31943
3.06476
3.78121
4.41871
4.58035
4.5599
4.58638
4.5749
4.57825
4.59351
4.59751
4.59071
4.59615
4.57546
4.51377
4.45724
4.4461
4.44319
4.44107
4.44145
4.43997
4.43531
4.43184
4.42674
4.41737
4.40776
4.40581
4.41277
4.41974
4.42235
4.43024
4.44269
4.44345
4.42922
4.42533
4.43384
4.43047
4.43013
4.439
4.44673
4.45139
1
1
1
1
1
1
1
1
1
1
1
1
1
1
1
1
1
1
1
1
1
1
1
1
1
1
1
1
1
1
1
1
1
1
0.999999
0.999995
1.00002
1.00003
1.00464
1.05128
1.28594
1.72809
2.50161
3.23999
4.05962
4.52604
4.52046
4.50612
4.55233
4.54572
4.55556
4.59132
4.59387
4.55469
4.46677
4.42197
4.41518
4.41088
4.41714
4.43368
4.43665
4.42253
4.40733
4.39885
4.40058
4.42019
4.43906
4.43573
4.4262
4.42575
4.43048
4.43152
4.42373
4.42475
4.43207
4.42398
4.426
4.44208
4.45266
4.45561
1
1
1
1
1
1
1
1
1
1
1
1
1
1
1
1
1
1
1
1
1
1
1
1
1
1
1
1
1
1
1
1
1
1
1
1
1
1
1
0.999944
1.00041
1.00975
1.09259
1.39551
1.97231
2.84242
3.51672
4.21082
4.54589
4.55562
4.59555
4.60206
4.58957
4.54398
4.44736
4.37112
4.35769
4.35959
4.38801
4.44235
4.46668
4.45264
4.41971
4.3957
4.39078
4.40812
4.43546
4.43435
4.4244
4.41789
4.41907
4.42527
4.42744
4.43212
4.43474
4.4223
4.42162
4.43757
4.45133
4.45799
1
1
1
1
1
1
1
1
1
1
1
1
1
1
1
1
1
1
1
1
1
1
1
1
1
1
1
1
1
1
1
1
1
1
1
1
1
1
1
0.999999
0.999998
1
0.999944
1.00201
1.0254
1.17382
1.61563
2.26634
3.15666
3.8511
4.32492
4.4662
4.47768
4.4745
4.46018
4.40527
4.34972
4.34487
4.36811
4.42919
4.47594
4.46945
4.42624
4.37703
4.36969
4.38163
4.41476
4.42377
4.41958
4.41091
4.4116
4.41561
4.43093
4.44177
4.4392
4.41906
4.41646
4.43288
4.44329
4.45337
1
1
1
1
1
1
1
1
1
1
1
1
1
1
1
1
1
1
1
1
1
1
1
1
1
1
1
1
1
1
1
1
1
1
1
1
1
1
1
1
1
1
0.999998
0.999998
0.99997
1.00017
1.00899
1.05655
1.33228
2.01631
2.8653
3.5301
4.02203
4.34864
4.44
4.43328
4.3778
4.33199
4.32791
4.3683
4.43903
4.44576
4.41474
4.35769
4.34428
4.35774
4.40002
4.43097
4.43266
4.41946
4.40388
4.4055
4.42373
4.4473
4.44517
4.42701
4.41895
4.43074
4.43763
4.44714
1
1
1
1
1
1
1
1
1
1
1
1
1
1
1
1
1
1
1
1
1
1
1
1
1
1
1
1
1
1
1
1
1
1
1
1
1
1
1
1
1
1
1
1
0.999998
0.999998
1
0.999963
1.00261
1.03282
1.2122
1.7313
2.42702
3.0745
3.67295
4.19525
4.31936
4.26015
4.18542
4.20868
4.32302
4.41859
4.43504
4.41332
4.37433
4.37118
4.39573
4.43198
4.43517
4.41949
4.38457
4.37986
4.40191
4.43587
4.44428
4.43798
4.42139
4.42115
4.4323
4.44764
1
1
1
1
1
1
1
1
1
1
1
1
1
1
1
1
1
1
1
1
1
1
1
1
1
1
1
1
1
1
1
1
1
1
1
1
1
1
1
1
1
1
1
1
1
1
1
0.999998
1
0.999972
1.00095
1.0151
1.09892
1.42807
1.97169
2.6775
3.36609
3.98158
4.15097
4.17165
4.24343
4.39709
4.43758
4.43045
4.38169
4.3367
4.34511
4.40177
4.42929
4.41449
4.37416
4.36269
4.38035
4.4201
4.43965
4.44082
4.43002
4.4146
4.4222
4.44221
1
1
1
1
1
1
1
1
1
1
1
1
1
1
1
1
1
1
1
1
1
1
1
1
1
1
1
1
1
1
1
1
1
1
1
1
1
1
1
1
1
1
1
1
1
1
1
1
1
0.999998
0.999998
0.999985
1.00015
1.0049
1.03836
1.22404
1.59046
2.15755
2.94227
3.51939
3.75277
3.98563
4.28997
4.36626
4.34453
4.25653
4.25686
4.3286
4.41873
4.43917
4.42476
4.38411
4.37792
4.39733
4.43166
4.44289
4.43489
4.41039
4.4098
4.43074
1
1
1
1
1
1
1
1
1
1
1
1
1
1
1
1
1
1
1
1
1
1
1
1
1
1
1
1
1
1
1
1
1
1
1
1
1
1
1
1
1
1
1
1
1
1
1
1
1
1
1
0.999999
0.999999
1
0.999998
1.00122
1.01131
1.07442
1.25632
1.70106
2.31633
2.86659
3.43478
4.01448
4.33271
4.31746
4.28397
4.32091
4.41115
4.4526
4.44863
4.40468
4.33973
4.3429
4.39935
4.43936
4.43278
4.40575
4.39573
4.41767
1
1
1
1
1
1
1
1
1
1
1
1
1
1
1
1
1
1
1
1
1
1
1
1
1
1
1
1
1
1
1
1
1
1
1
1
1
1
1
1
1
1
1
1
1
1
1
1
1
1
1
1
1
1
0.999999
0.999999
0.999995
1.00011
1.00172
1.02005
1.08495
1.32817
1.81059
2.43419
3.19568
3.90156
4.05336
4.07817
4.18656
4.38339
4.42461
4.40595
4.32868
4.31741
4.36052
4.42571
4.4456
4.43669
4.40426
4.41187
1
1
1
1
1
1
1
1
1
1
1
1
1
1
1
1
1
1
1
1
1
1
1
1
1
1
1
1
1
1
1
1
1
1
1
1
1
1
1
1
1
1
1
1
1
1
1
1
1
1
1
1
1
1
1
1
1
1
0.999998
1.00001
1.00017
1.00392
1.02744
1.15773
1.45677
2.03218
2.80916
3.42004
3.75072
4.05835
4.38457
4.4353
4.40104
4.35341
4.36746
4.41663
4.44307
4.43538
4.40488
4.40061
1
1
1
1
1
1
1
1
1
1
1
1
1
1
1
1
1
1
1
1
1
1
1
1
1
1
1
1
1
1
1
1
1
1
1
1
1
1
1
1
1
1
1
1
1
1
1
1
1
1
1
1
1
1
1
1
1
1
1
1
1
1
1
1.00083
1.00731
1.06086
1.23243
1.66973
2.41173
3.01674
3.60696
4.16817
4.32254
4.26987
4.24882
4.29506
4.39998
4.43162
4.41398
4.38781
1
1
1
1
1
1
1
1
1
1
1
1
1
1
1
1
1
1
1
1
1
1
1
1
1
1
1
1
1
1
1
1
1
1
1
1
1
1
1
1
1
1
1
1
1
1
1
1
1
1
1
1
1
1
1
1
1
1
1
1
1
1
0.999999
1
0.999994
1.00012
1.00193
1.0231
1.11909
1.45487
1.99896
2.72152
3.50618
4.08
4.1326
4.19487
4.31042
4.41703
4.43873
4.43608
1
1
1
1
1
1
1
1
1
1
1
1
1
1
1
1
1
1
1
1
1
1
1
1
1
1
1
1
1
1
1
1
1
1
1
1
1
1
1
1
1
1
1
1
1
1
1
1
1
1
1
1
1
1
1
1
1
1
1
1
1
1
1
1
0.999999
1
0.999998
1.00001
1.00055
1.0094
1.05415
1.28013
1.75587
2.46791
3.33729
3.87813
4.02409
4.19456
4.3903
4.42632
1
1
1
1
1
1
1
1
1
1
1
1
1
1
1
1
1
1
1
1
1
1
1
1
1
1
1
1
1
1
1
1
1
1
1
1
1
1
1
1
1
1
1
1
1
1
1
1
1
1
1
1
1
1
1
1
1
1
1
1
1
1
1
1
1
1
1
1
0.999999
1
1.00011
1.00362
1.03013
1.17538
1.57868
2.29491
3.14253
3.67264
4.04683
4.30009
1
1
1
1
1
1
1
1
1
1
1
1
1
1
1
1
1
1
1
1
1
1
1
1
1
1
1
1
1
1
1
1
1
1
1
1
1
1
1
1
1
1
1
1
1
1
1
1
1
1
1
1
1
1
1
1
1
1
1
1
1
1
1
1
1
1
1
1
1
1
1
1
1.00003
1.00153
1.01766
1.12455
1.46468
2.13894
2.92033
3.82208
1
1
1
1
1
1
1
1
1
1
1
1
1
1
1
1
1
1
1
1
1
1
1
1
1
1
1
1
1
1
1
1
1
1
1
1
1
1
1
1
1
1
1
1
1
1
1
1
1
1
1
1
1
1
1
1
1
1
1
1
1
1
1
1
1
1
1
1
1
1
1
1
1
1
1.00001
1.00084
1.01148
1.09604
1.36409
2.45387
1
1
1
1
1
1
1
1
1
1
1
1
1
1
1
1
1
1
1
1
1
1
1
1
1
1
1
1
1
1
1
1
1
1
1
1
1
1
1
1
1
1
1
1
1
1
1
1
1
1
1
1
1
1
1
1
1
1
1
1
1
1
1
1
1
1
1
1
1
1
1
1
1
1
1
1
1
1.00058
1.00757
1.23619
1
1
1
1
1
1
1
1
1
1
1
1
1
1
1
1
1
1
1
1
1
1
1
1
1
1
1
1
1
1
1
1
1
1
1
1
1
1
1
1
1
1
1
1
1
1
1
1
1
1
1
1
1
1
1
1
1
1
1
1
1
1
1
1
1
1
1
1
1
1
1
1
1
1
1
1
1
1
1
1.00567
1
1
1
1
1
1
1
1
1
1
1
1
1
1
1
1
1
1
1
1
1
1
1
1
1
1
1
1
1
1
1
1
1
1
1
1
1
1
1
1
1
1
1
1
1
1
1
1
1
1
1
1
1
1
1
1
1
1
1
1
1
1
1
1
1
1
1
1
1
1
1
1
1
1
1
1
1
1
1
1.00001
1
1
1
1
1
1
1
1
1
1
1
1
1
1
1
1
1
1
1
1
1
1
1
1
1
1
1
1
1
1
1
1
1
1
1
1
1
1
1
1
1
1
1
1
1
1
1
1
1
1
1
1
1
1
1
1
1
1
1
1
1
1
1
1
1
1
1
1
1
1
1
1
1
1
1
1
1
1
1
1
1
1
1
1
1
1
1
1
1
1
1
1
1
1
1
1
1
1
1
1
1
1
1
1
1
1
1
1
1
1
1
1
1
1
1
1
1
1
1
1
1
1
1
1
1
1
1
1
1
1
1
1
1
1
1
1
1
1
1
1
1
1
1
1
1
1
1
1
1
1
1
1
1
1
1
1
1
1
1
1
1
1
1
1
1
1
1
1
1
1
1
1
1
1
1
1
1
1
1
1
1
1
1
1
1
1
1
1
1
1
1
1
1
1
1
1
1
1
1
1
1
1
1
1
1
1
1
1
1
1
1
1
1
1
1
1
1
1
1
1
1
1
1
1
1
1
1
1
1
1
1
1
1
1
1
1
1
1
1
1
1
1
1
1
1
1
1
1
1
1
1
1
1
1
1
1
1
1
1
1
1
1
1
1
1
1
1
1
1
1
1
1
1
1
1
1
1
1
1
1
1
1
1
1
1
1
1
1
1
1
1
1
1
1
1
1
1
1
1
1
1
1
1
1
1
1
1
1
1
1
1
1
1
1
1
1
1
1
1
1
1
1
1
1
1
1
1
1
1
1
1
1
1
1
1
1
1
1
1
1
1
1
1
1
1
1
1
1
1
1
1
1
1
1
1
1
1
1
1
1
1
1
1
1
1
1
1
1
1
1
1
1
1
1
1
1
1
1
1
1
1
1
1
1
1
1
1
1
1
1
1
1
1
1
1
1
1
1
1
1
1
1
1
1
1
1
1
1
1
1
1
1
1
1
1
1
1
1
1
1
1
1
1
1
1
1
1
1
1
1
1
1
1
1
1
1
1
1
1
1
1
1
1
1
1
1
1
1
1
1
1
1
1
1
1
1
1
1
1
1
1
1
1
1
1
1
1
1
1
1
1
1
1
1
1
1
1
1
1
1
1
1
1
1
1
1
1
1
1
1
1
1
1
1
1
1
1
1
1
1
1
1
1
1
1
1
1
1
1
1
1
1
1
1
1
1
1
1
1
1
1
1
1
1
1
1
1
1
1
1
1
1
1
1
1
1
1
1
1
1
1
1
1
1
1
1
1
1
1
1
1
1
1
1
1
1
1
1
1
1
1
1
1
1
1
1
1
1
1
1
1
1
1
1
1
1
1
1
1
1
1
1
1
1
1
1
1
1
1
1
1
1
1
1
1
1
1
1
1
1
1
1
1
1
1
1
1
1
1
1
1
1
1
1
1
1
1
1
1
1
1
1
1
1
1
1
1
1
1
1
1
1
1
1
1
1
1
1
1
1
1
1
1
1
1
1
1
1
1
1
1
1
1
1
1
1
1
1
1
1
1
1
1
1
1
1
1
1
1
1
1
1
1
1
1
1
1
1
1
1
1
1
1
1
1
1
1
1
1
1
1
1
1
1
1
1
1
1
1
1
1
1
1
1
1
1
1
1
1
1
1
1
1
1
1
1
1
1
1
1
1
1
1
1
1
1
1
1
1
1
1
1
1
1
1
1
1
1
1
1
1
1
1
1
1
1
1
1
1
1
1
1
1
1
1
1
1
1
1
1
1
1
1
1
1
1
1
1
1
1
1
1
1
1
1
1
1
1
1
1
1
1
1
1
1
1
1
1
1
1
1
1
1
1
1
1
1
1
1
1
)
;

boundaryField
{
    inlet
    {
        type            fixedValue;
        value           uniform 1;
    }
    outlet
    {
        type            zeroGradient;
    }
    bottom
    {
        type            symmetryPlane;
    }
    top
    {
        type            symmetryPlane;
    }
    obstacle
    {
        type            zeroGradient;
    }
    defaultFaces
    {
        type            empty;
    }
}


// ************************************************************************* //
