/*--------------------------------*- C++ -*----------------------------------*\
| =========                 |                                                 |
| \\      /  F ield         | OpenFOAM: The Open Source CFD Toolbox           |
|  \\    /   O peration     | Version:  2206                                  |
|   \\  /    A nd           | Website:  www.openfoam.com                      |
|    \\/     M anipulation  |                                                 |
\*---------------------------------------------------------------------------*/
FoamFile
{
    version     2.0;
    format      ascii;
    arch        "LSB;label=32;scalar=64";
    class       volScalarField;
    location    "0.06";
    object      T;
}
// * * * * * * * * * * * * * * * * * * * * * * * * * * * * * * * * * * * * * //

dimensions      [0 0 0 1 0 0 0];

internalField   nonuniform List<scalar> 
4800
(
1
1
1
1
1
1
1
1
1
1
1
1
1
1
1
1
1
1
1
1
1
1
1
1
1
1
1
1
1
1
1
1
1
1
1
1
1
1
1
1
1
1
1
1
1
1
1
1
1
1
1
1
1
1
1
1
1
1
1
1
1
1
1
1
1
1
1
1
1
1
1
1
1
1
1
1
1
1
1
1
1
1
1
1
1
1
1
1
1
1
1
1
1
1
1
1
1
1
1
1
1
1
1
1
1
1
1
1
1
1
1
1
1
1
1
1
1
1
1
1
1
1
1
1
1
1
1
1
1
1
1
1
1
1
1
1
1
1
1
1
1
1
1
1
1
1
1
1
1
1
1
1
1
1
1
1
1
1
1
1
1
1
1
1
1
1
1
1
1
1
1
1
1
1
1
1
1
1
1
1
1
1
1
1
1
1
1
1
1
1
1
1
1
1
1
1
1
1
1
1
1
1
1
1
1
1
1
1
1
1
1
1
1
1
1
1
1
1
1
1
1
1
1
1
1
1
1
1
1
1
1
1
1
1
1
1
1
1
1
1
1
1
1
1
1
1
1
1
1
1
1
1
1
1
1
1
1
1
1
1
1
1
1
1
1
1
1
1
1
1
1
1
1
1
1
1
1
1
1
1
1
1
1
1
1
1
1
1
1
1
1
1
1
1
1
1
1
1
1
1
1
1
1
1
1
1
1
1
1
1
1
1
1
1
1
1
1
1
1
1
1
1
1
1
1
1
1
1
1
1
1
1
1
1
1
1
1
1
1
1
1
1
1
1
1
1
1
1
1
1
1
1
1
1
1
1
1
1
1
1
1
1
1
1
1
1
1
1
1
1
1
1
1
1
1
1
1
1
1
1
1
1
1
1
1
1
1
1
1
1
1
1
1
1
1
1
1
1
1
1
1
1
1
1
1
1
1
1
1
1
1
1
1
1
1
1
1
1
1
1
1
1
1
1
1
1
1
1
1
1
1
1
1
1
1
1
1
1
1
1
1
1
1
1
1
1
1
1
1
1
1
1
1
1
1
1
1
1
1
1
1
1
1
1
1
1
1
1
1
1
1
1
1
1
1
1
1
1
1
1
1
1
1
1
1
1
1
1
1
1
1
1
1
1
1
1
1
1
1
1
1
1
1
1
1
1
1
1
1
1
1
1
1
1
1
1
1
1
1
1
1
1
1
1
1
1
1
1
1
1
1
1
1
1
1
1
1
1
1
1
1
1
1
1
1
1
1
1
1
1
1
1
1
1
1
1
1
1
1
1
1
1
1
1
1
1
1
1
1
1
1
1
1
1
1
1
1
1
1
1
1
1
1
1
1
1
1
1
1
1
1
1
1
1
1
1
1
1
1
1
1
1
1
1
1
1
1
1
1
1
1
1
1
1
1
1
1
1
1
1
1
1
1
1
1
1
1
1
1
1
1
1
1
1
1
1
1
1
1
1
1
1
1
1
1
1
1
1
1
1
1
1
1
1
1
1
1
1
1
1
1
1
1
1
1
1
1
1
1
1
1
1
1
1
1
1
1
1
1
1
1
1
1
1
1
1
1
1
1
1
1
1
1
1
1
1
1
1
1
1
1
1
1
1
1
1
1
1
1
1
1
1
1
1
1
1
1
1
1
1
1
1
1
1
1
1
1
1
1
1
1
1
1
1
1
1
1
1
1
1
1
1
1
1
1
1
1
1
1
1
1
1
1
1
1
1
1
1
1
1
1
1
1
1
1
1
1
1
1
1
1
1
1
1
1
1
1
1
1
1
1
1
1
1
1
1
1
1
1
1
1
1
1
1
1
1
1
1
1
1
1
1
1
1
1
1
1
1
1
1
1
1
1
1
1
1
1
1
1
1
1
1
1
1
1
1
1
1
1
1
1
1
1
1
1
1
1
1
1
1
1
1
1
1
1
1
1
1
1
1
1
1
1
1
1
1
1
1
1
1
1
1
1
1
1
1
1
1
1
1
1
1
1
1
1
1
1
1
1
1
1
1
1
1
1
1
1
1
1
1
1
1
1
1
1
1
1
1
1
1
1
1
1
1
1
1
1
1
1
1
1
1
1
1
1
1
1
1
1
1
1
1
1
1
1
1
1
1
1
1
1
1
1
1
1
1
1
1
1
1
1
1
1
1
1
1
1
1
1
1
1
1
1
1
1
1
1
1
1
1
1
1
1
1
1
1
1
1
1
1
1
1
1
1
1
1
1
1
1
1
1
1
1
1
1
1
1
1
1
1
1
1
1
1
1
1
1
1
1
1
1
1
1
1
1
1
1
1
1
1
1
1
1
1
1
1
1
1
1
1
1
1
1
1
1
1
1
1
1
1
1
1
1
1
1
1
1
1
1
1
1
1
1
1
1
1
1
1
1
1
1
1
1
1
1
1
1
1
1
1
1
1
1
1
1
1
1
1
1
1
1
1
1
1
1
1
1
1
1
1
1
1
1
1
1
1
1
1
1
1
1
1
1
1
1
1
1
1
1
1
1
1
1
1
1
1
1
1
1
1
1
1
1
1
1
1
1
1
1
1
1
1
1
1
1
1
1
1
1
1
1
1
1
1
1
1
1
1
1
1
1
1
1
1
1
1
1
1
1
1
1
1
1
1
1
1
1
1
1
1
1
1
1
1
1
1
1
1
1
1
1
1
1
1
1
1
1
1
1
1
1
1
1
1
1
1
1
1
1
1
1
1
1
1
1
1
1
1
1
1
1
1
1
1
1
1
1
1
1
1
1
1
1
1
1
1
1
1
1
1
1
1
1
1
1
1
1
1
1
1
1
1
1
1
1
1
1
1
1
1
1
1
1
1
1
1
1
1
1
1
1
1
1
1
1
1
1
1
1
1
1
1
1
1
1
1
1
1
1
1
1
1
1
1
1
1
1
1
1
1
1
1
1
1
1
1
1
1
1
1
1
1
1
1
1
1
1
1
1
1
1
1
1
1
1
1
1
1
1
1
1
1
1
1
1
1
1
1
1
1
1
1
1
1
1
1
1
1
1
1
1
1
1
1
1
1
1
1
1
1
1
1
1
1
1
1
1
1
1
1
1
1
1
1
1
1
1
1
1
1
1
1
1
1
1
1
1
1
1
1
1
1
1
1
1
1
1
1
1
1
1
1
1
1
1
1
1
1
1
1
1
1
1
1
1
1
1
1
1
1
1
1
1
1
1
1
1
1
1
1
1
1
1
1
1
1
1
1
1
1
1
1
1
1
1
1
1
1
1
1
1
1
1
1
1
1
1
1
1
1
1
1
1
1
1
1
1
1
1
1
1
1
1
1
1
1
1
1
1
1
1
1
1
1
1
1
1
1
1
1
1
1
1
1
1
1
1
1
1
1
1
1
1
1
1
1
1
1
1
1
1
1
1
1
1
1
1
1
1
1
1
1
1
1
1
1
1
1
1
1
1
1
1
1
1
1
1
1
1
1
1
1
1
1
1
1
1
1
1
1
1
1
1
1
1
1
1
1
1
1
1
1
1
1
1
1
1
1
1
1
1
1
1
1
1
1
1
1
1
1
1
1
1
1
1
1
1
1
1
1
1
1
1
1
1
1
1
1
1
1
1
1
1
1
1
1
1
1
1
1
1
1
1
1
1
1
1
1
1
1
1.07079
1.16479
1.26461
1.35389
1.43544
1.5324
1.63133
1.69058
1.7326
1.79182
1.86364
1.87584
1.86842
1.86598
1.85938
1.84122
1.80285
1.74776
1.70308
1.68939
1.6736
1.65548
1.65556
1.66008
1.6625
1.66475
1.66851
1.67312
1.68085
1.68944
1.69669
1.70063
1.70054
1.69927
1.69748
1.69708
1.6977
1.69778
1.69826
1.70056
1.70402
1.7061
1.70679
1.70661
1.70633
1.70662
1.70702
1.7069
1.70535
1.70193
1.69925
1.69819
1.69718
1.69495
1.69162
1.68813
1.68519
1.68295
1.68216
1.68212
1.6823
1.68253
1.68252
1.68233
1.68183
1.68078
1.67926
1.67772
1.67588
1.6748
1.67453
1.67633
1.68092
1.68154
1.68045
1.6801
1.6805
1.6813
1.68181
1.68208
1
0.999821
0.999675
1.01579
1.04548
1.07228
1.13422
1.23452
1.30962
1.36106
1.43876
1.51595
1.55253
1.59514
1.63354
1.65512
1.67294
1.70298
1.72751
1.74186
1.73986
1.72678
1.71945
1.71799
1.71165
1.7017
1.69464
1.69004
1.69005
1.69084
1.69183
1.69485
1.69821
1.70088
1.7033
1.70515
1.70595
1.70607
1.70631
1.70623
1.70545
1.70494
1.70486
1.70525
1.70676
1.70982
1.71197
1.71206
1.71159
1.70971
1.70594
1.70184
1.69834
1.69439
1.68972
1.68604
1.68448
1.68426
1.68417
1.68421
1.68455
1.68485
1.68485
1.68467
1.68397
1.6824
1.68025
1.67822
1.67631
1.67513
1.67485
1.67677
1.68079
1.68114
1.68074
1.68101
1.68187
1.68291
1.68343
1.68365
1
1
1
1
1
1
1
0.999696
1.0011
1.00788
1.02817
1.10222
1.19055
1.29449
1.4436
1.57366
1.69988
1.74938
1.80251
1.81109
1.80698
1.79669
1.78463
1.7736
1.76102
1.73643
1.71903
1.71328
1.7077
1.70303
1.70308
1.70563
1.70972
1.71421
1.71833
1.72006
1.72051
1.72072
1.72115
1.72105
1.72021
1.71746
1.71461
1.71333
1.71356
1.71629
1.7216
1.72413
1.72406
1.72196
1.71738
1.7125
1.70808
1.70313
1.6973
1.69217
1.69033
1.69005
1.68997
1.69017
1.69064
1.69129
1.69165
1.69159
1.69096
1.68942
1.68675
1.68333
1.68067
1.67934
1.67926
1.68119
1.68471
1.68488
1.68477
1.68523
1.6865
1.68781
1.68838
1.6885
1
1
1
1
1
1
1
1
1
1
1
1
0.999733
1.00063
1.02416
1.09814
1.25454
1.42825
1.56811
1.69711
1.73301
1.76606
1.77125
1.76384
1.76351
1.77427
1.77454
1.77095
1.76102
1.74813
1.74095
1.73764
1.73108
1.7261
1.72513
1.72594
1.72955
1.73533
1.73887
1.73955
1.73954
1.73728
1.73388
1.7305
1.72843
1.72847
1.73044
1.73374
1.73522
1.73481
1.73264
1.72862
1.72342
1.71767
1.71072
1.70504
1.70287
1.702
1.70155
1.70154
1.7016
1.70156
1.70147
1.7012
1.70061
1.69917
1.69571
1.69055
1.68686
1.68639
1.68651
1.68816
1.69176
1.69191
1.69193
1.69274
1.69444
1.69593
1.69648
1.69653
1
1
1
1
1
1
1
1
1
1
1
1
1
1
1
1
0.999568
1.01014
1.05183
1.18962
1.39286
1.52277
1.64189
1.70556
1.76305
1.80976
1.81024
1.80569
1.79974
1.79093
1.77969
1.76506
1.75322
1.74155
1.7373
1.73798
1.74113
1.74552
1.74975
1.75116
1.75121
1.75083
1.74993
1.74793
1.74503
1.7449
1.74595
1.74558
1.74453
1.74375
1.74212
1.7392
1.73465
1.72866
1.7222
1.71872
1.71737
1.71652
1.71572
1.71527
1.71472
1.71379
1.71261
1.71105
1.70925
1.7067
1.70267
1.69762
1.69462
1.69384
1.69393
1.69585
1.69907
1.69888
1.69924
1.70119
1.70421
1.70627
1.70664
1.70655
1
1
1
1
1
1
1
1
1
1
1
1
1
1
1
1
1
1
1
0.999654
1.00708
1.03287
1.12938
1.32131
1.46806
1.59933
1.66415
1.72601
1.76962
1.77037
1.77108
1.77525
1.77414
1.76449
1.75665
1.75544
1.75397
1.75287
1.75139
1.75087
1.75014
1.75125
1.75302
1.75348
1.75373
1.75645
1.75679
1.75526
1.75136
1.74827
1.74634
1.74373
1.73939
1.73414
1.73009
1.72808
1.72755
1.72704
1.72609
1.72509
1.72406
1.72245
1.72004
1.71694
1.7136
1.71088
1.70826
1.70408
1.69955
1.69796
1.6981
1.70101
1.70349
1.70324
1.70451
1.70782
1.71202
1.71489
1.71543
1.71537
1
1
1
1
1
1
1
1
1
1
1
1
1
1
1
1
1
1
1
1
1
1
0.999759
1.00266
1.01941
1.10202
1.26535
1.40741
1.55644
1.63964
1.71914
1.76917
1.77242
1.77385
1.77254
1.76897
1.7639
1.75497
1.745
1.74229
1.74286
1.74592
1.74948
1.75421
1.75902
1.76002
1.7587
1.75575
1.75171
1.74854
1.74711
1.74514
1.7406
1.73478
1.73216
1.73125
1.73102
1.73063
1.72975
1.72917
1.72823
1.72631
1.72314
1.71911
1.7151
1.71229
1.70977
1.70609
1.70244
1.70083
1.70108
1.70382
1.70447
1.70459
1.7068
1.71115
1.71604
1.71987
1.72094
1.72091
1
1
1
1
1
1
1
1
1
1
1
1
1
1
1
1
1
1
1
1
1
1
1
1
1
0.999812
1.00121
1.01222
1.08933
1.2379
1.37072
1.51539
1.60765
1.70223
1.74341
1.74512
1.75005
1.7519
1.74482
1.73863
1.73944
1.74286
1.74614
1.74972
1.75369
1.75545
1.75613
1.75632
1.75458
1.74987
1.74643
1.74388
1.74021
1.73466
1.73101
1.72925
1.72881
1.72895
1.72908
1.72868
1.72762
1.72551
1.72225
1.71815
1.71397
1.71061
1.70808
1.70509
1.70213
1.70065
1.70117
1.70357
1.70301
1.7032
1.70577
1.71066
1.71612
1.72085
1.72276
1.72295
1
1
1
1
1
1
1
1
1
1
1
1
1
1
1
1
1
1
1
1
1
1
1
1
1
1
1
1
0.999845
1.00074
1.0088
1.0762
1.20681
1.36289
1.50891
1.6055
1.69996
1.73122
1.73816
1.74182
1.74328
1.74169
1.73888
1.73654
1.73547
1.73929
1.74707
1.74966
1.74985
1.74981
1.74867
1.74538
1.73998
1.73215
1.72634
1.72544
1.72538
1.72563
1.72605
1.72667
1.72644
1.72492
1.72218
1.7181
1.71342
1.70822
1.70364
1.70078
1.69864
1.69824
1.69929
1.69986
1.69964
1.70139
1.70563
1.71117
1.7163
1.72111
1.7234
1.72382
1
1
1
1
1
1
1
1
1
1
1
1
1
1
1
1
1
1
1
1
1
1
1
1
1
1
1
1
1
1
1
0.999888
1.00064
1.01066
1.08742
1.20935
1.3524
1.49588
1.60064
1.69573
1.72427
1.72109
1.72676
1.72641
1.72025
1.7206
1.72895
1.74081
1.74419
1.74353
1.74047
1.73642
1.73161
1.72328
1.71891
1.71945
1.72004
1.72077
1.72158
1.72133
1.72027
1.71829
1.71604
1.71205
1.7067
1.70095
1.69595
1.6933
1.69265
1.69296
1.69498
1.69605
1.69595
1.69759
1.70281
1.70873
1.71377
1.71901
1.72204
1.72299
1
1
1
1
1
1
1
1
1
1
1
1
1
1
1
1
1
1
1
1
1
1
1
1
1
1
1
1
1
1
1
1
0.999999
1
0.999961
1.00091
1.01208
1.09127
1.21656
1.37827
1.50789
1.61722
1.69832
1.7127
1.71032
1.71387
1.71634
1.72097
1.72473
1.72506
1.72376
1.72401
1.72141
1.71622
1.71395
1.71419
1.71424
1.7139
1.7134
1.71201
1.70954
1.70687
1.70399
1.70028
1.69601
1.69238
1.69006
1.68802
1.68656
1.68657
1.68796
1.68917
1.68966
1.69193
1.6972
1.70244
1.70852
1.71473
1.7188
1.72059
1
1
1
1
1
1
1
1
1
1
1
1
1
1
1
1
1
1
1
1
1
1
1
1
1
1
1
1
1
1
1
1
1
1
1
0.999998
1.00001
1.00001
1.00176
1.0201
1.10852
1.24302
1.41367
1.53261
1.64763
1.7029
1.70227
1.70043
1.70731
1.70992
1.71245
1.71721
1.71782
1.71506
1.70819
1.70462
1.70358
1.70199
1.70104
1.70021
1.69808
1.69388
1.68972
1.68663
1.68471
1.68405
1.68389
1.68256
1.68048
1.68022
1.68092
1.68199
1.68299
1.68566
1.6905
1.69504
1.70127
1.70869
1.71402
1.7169
1
1
1
1
1
1
1
1
1
1
1
1
1
1
1
1
1
1
1
1
1
1
1
1
1
1
1
1
1
1
1
1
1
1
1
1
1
1
1
0.999978
1.00015
1.00369
1.03654
1.14427
1.30409
1.47573
1.57383
1.6571
1.69567
1.70353
1.71261
1.71358
1.71239
1.70824
1.69924
1.69034
1.68715
1.6867
1.68745
1.68923
1.68937
1.68588
1.68014
1.67597
1.67425
1.67477
1.67648
1.67611
1.67484
1.67445
1.67484
1.67628
1.67789
1.68053
1.68402
1.68735
1.69287
1.70046
1.7069
1.71151
1
1
1
1
1
1
1
1
1
1
1
1
1
1
1
1
1
1
1
1
1
1
1
1
1
1
1
1
1
1
1
1
1
1
1
1
1
1
1
1
0.999999
1
0.999976
1.00073
1.00982
1.068
1.21225
1.3626
1.51322
1.61298
1.67883
1.69395
1.69341
1.69297
1.69158
1.68437
1.67632
1.67499
1.67528
1.67784
1.68039
1.67871
1.67217
1.66581
1.66476
1.66581
1.66933
1.67057
1.67039
1.66991
1.67028
1.67128
1.67373
1.67683
1.67868
1.68015
1.68443
1.69197
1.69855
1.70466
1
1
1
1
1
1
1
1
1
1
1
1
1
1
1
1
1
1
1
1
1
1
1
1
1
1
1
1
1
1
1
1
1
1
1
1
1
1
1
1
1
1
0.999999
0.999999
0.999988
1.00006
1.00334
1.02183
1.12157
1.31378
1.47311
1.56981
1.63089
1.67182
1.6828
1.68167
1.67376
1.66432
1.66134
1.66306
1.66979
1.67029
1.66554
1.6582
1.65678
1.65876
1.66461
1.66917
1.66973
1.66865
1.66718
1.6675
1.66995
1.6738
1.6749
1.67565
1.67825
1.68457
1.69077
1.69758
1
1
1
1
1
1
1
1
1
1
1
1
1
1
1
1
1
1
1
1
1
1
1
1
1
1
1
1
1
1
1
1
1
1
1
1
1
1
1
1
1
1
1
1
1
0.999999
1
0.999984
1.00092
1.01272
1.07985
1.2431
1.38742
1.49237
1.58073
1.6545
1.66216
1.65107
1.63584
1.63721
1.65054
1.66289
1.6649
1.6622
1.65788
1.65815
1.66286
1.66834
1.66893
1.66753
1.66363
1.66301
1.66554
1.66982
1.67175
1.67275
1.6739
1.67777
1.68398
1.69188
1
1
1
1
1
1
1
1
1
1
1
1
1
1
1
1
1
1
1
1
1
1
1
1
1
1
1
1
1
1
1
1
1
1
1
1
1
1
1
1
1
1
1
1
1
1
1
0.999999
1
0.999988
1.00032
1.00576
1.03744
1.1511
1.29001
1.43029
1.54205
1.62155
1.63154
1.62993
1.63878
1.66063
1.66531
1.66387
1.65769
1.65415
1.65665
1.66511
1.66832
1.66668
1.6619
1.66029
1.66191
1.66608
1.66917
1.67054
1.67151
1.67307
1.67785
1.68639
1
1
1
1
1
1
1
1
1
1
1
1
1
1
1
1
1
1
1
1
1
1
1
1
1
1
1
1
1
1
1
1
1
1
1
1
1
1
1
1
1
1
1
1
1
1
1
1
1
0.999999
0.999999
0.999994
1.00005
1.0018
1.01428
1.08315
1.19835
1.33508
1.47862
1.55423
1.57915
1.61143
1.65206
1.65851
1.65528
1.64549
1.64653
1.65693
1.66775
1.66962
1.66757
1.66235
1.66128
1.66307
1.66725
1.66953
1.67001
1.67026
1.67287
1.68114
1
1
1
1
1
1
1
1
1
1
1
1
1
1
1
1
1
1
1
1
1
1
1
1
1
1
1
1
1
1
1
1
1
1
1
1
1
1
1
1
1
1
1
1
1
1
1
1
1
1
1
1
1
1
0.999997
1.00043
1.00416
1.02813
1.09588
1.23104
1.36519
1.45446
1.54103
1.62692
1.65956
1.65488
1.64977
1.65544
1.66783
1.67178
1.67073
1.66466
1.65691
1.65715
1.66342
1.66861
1.66873
1.66825
1.66923
1.67681
1
1
1
1
1
1
1
1
1
1
1
1
1
1
1
1
1
1
1
1
1
1
1
1
1
1
1
1
1
1
1
1
1
1
1
1
1
1
1
1
1
1
1
1
1
1
1
1
1
1
1
1
1
1
1
1
0.999998
1.00003
1.00062
1.00751
1.03246
1.11756
1.253
1.38854
1.51944
1.61245
1.62404
1.62593
1.64201
1.66557
1.66846
1.6657
1.65603
1.65449
1.65903
1.6667
1.67031
1.67061
1.66987
1.67454
1
1
1
1
1
1
1
1
1
1
1
1
1
1
1
1
1
1
1
1
1
1
1
1
1
1
1
1
1
1
1
1
1
1
1
1
1
1
1
1
1
1
1
1
1
1
1
1
1
1
1
1
1
1
1
1
1
1
0.999999
1
1.00005
1.0014
1.01024
1.05901
1.16058
1.31009
1.45888
1.54266
1.58518
1.62764
1.66741
1.67036
1.66509
1.65863
1.66008
1.666
1.6699
1.6699
1.66931
1.67245
1
1
1
1
1
1
1
1
1
1
1
1
1
1
1
1
1
1
1
1
1
1
1
1
1
1
1
1
1
1
1
1
1
1
1
1
1
1
1
1
1
1
1
1
1
1
1
1
1
1
1
1
1
1
1
1
1
1
1
1
1
1
0.999999
1.00028
1.00268
1.02281
1.08696
1.21987
1.38366
1.48395
1.56965
1.64495
1.6577
1.65002
1.64674
1.65233
1.66498
1.67009
1.6696
1.67051
1
1
1
1
1
1
1
1
1
1
1
1
1
1
1
1
1
1
1
1
1
1
1
1
1
1
1
1
1
1
1
1
1
1
1
1
1
1
1
1
1
1
1
1
1
1
1
1
1
1
1
1
1
1
1
1
1
1
1
1
1
1
1
1
0.999998
1.00004
1.00068
1.00848
1.04507
1.15875
1.29717
1.4382
1.56257
1.63207
1.63399
1.63939
1.65431
1.66836
1.67287
1.67555
1
1
1
1
1
1
1
1
1
1
1
1
1
1
1
1
1
1
1
1
1
1
1
1
1
1
1
1
1
1
1
1
1
1
1
1
1
1
1
1
1
1
1
1
1
1
1
1
1
1
1
1
1
1
1
1
1
1
1
1
1
1
1
1
1
1
1
1
1.00018
1.00342
1.02019
1.10173
1.24281
1.39488
1.5363
1.60274
1.61922
1.64168
1.66533
1.67507
1
1
1
1
1
1
1
1
1
1
1
1
1
1
1
1
1
1
1
1
1
1
1
1
1
1
1
1
1
1
1
1
1
1
1
1
1
1
1
1
1
1
1
1
1
1
1
1
1
1
1
1
1
1
1
1
1
1
1
1
1
1
1
1
1
1
1
1
1
1
1.00003
1.00128
1.01114
1.06487
1.19509
1.36274
1.50443
1.57643
1.62282
1.65968
1
1
1
1
1
1
1
1
1
1
1
1
1
1
1
1
1
1
1
1
1
1
1
1
1
1
1
1
1
1
1
1
1
1
1
1
1
1
1
1
1
1
1
1
1
1
1
1
1
1
1
1
1
1
1
1
1
1
1
1
1
1
1
1
1
1
1
1
1
1
1
1
1.00001
1.00052
1.00644
1.04662
1.16096
1.32928
1.46545
1.60712
1
1
1
1
1
1
1
1
1
1
1
1
1
1
1
1
1
1
1
1
1
1
1
1
1
1
1
1
1
1
1
1
1
1
1
1
1
1
1
1
1
1
1
1
1
1
1
1
1
1
1
1
1
1
1
1
1
1
1
1
1
1
1
1
1
1
1
1
1
1
1
1
1
1
1
1.00028
1.00414
1.03573
1.12727
1.41303
1
1
1
1
1
1
1
1
1
1
1
1
1
1
1
1
1
1
1
1
1
1
1
1
1
1
1
1
1
1
1
1
1
1
1
1
1
1
1
1
1
1
1
1
1
1
1
1
1
1
1
1
1
1
1
1
1
1
1
1
1
1
1
1
1
1
1
1
1
1
1
1
1
1
1
1
0.999999
1.00019
1.00269
1.08847
1
1
1
1
1
1
1
1
1
1
1
1
1
1
1
1
1
1
1
1
1
1
1
1
1
1
1
1
1
1
1
1
1
1
1
1
1
1
1
1
1
1
1
1
1
1
1
1
1
1
1
1
1
1
1
1
1
1
1
1
1
1
1
1
1
1
1
1
1
1
1
1
1
1
1
1
1
1
1
1.00193
1
1
1
1
1
1
1
1
1
1
1
1
1
1
1
1
1
1
1
1
1
1
1
1
1
1
1
1
1
1
1
1
1
1
1
1
1
1
1
1
1
1
1
1
1
1
1
1
1
1
1
1
1
1
1
1
1
1
1
1
1
1
1
1
1
1
1
1
1
1
1
1
1
1
1
1
1
1
1
1
1
1
1
1
1
1
1
1
1
1
1
1
1
1
1
1
1
1
1
1
1
1
1
1
1
1
1
1
1
1
1
1
1
1
1
1
1
1
1
1
1
1
1
1
1
1
1
1
1
1
1
1
1
1
1
1
1
1
1
1
1
1
1
1
1
1
1
1
1
1
1
1
1
1
1
1
1
1
1
1
1
1
1
1
1
1
1
1
1
1
1
1
1
1
1
1
1
1
1
1
1
1
1
1
1
1
1
1
1
1
1
1
1
1
1
1
1
1
1
1
1
1
1
1
1
1
1
1
1
1
1
1
1
1
1
1
1
1
1
1
1
1
1
1
1
1
1
1
1
1
1
1
1
1
1
1
1
1
1
1
1
1
1
1
1
1
1
1
1
1
1
1
1
1
1
1
1
1
1
1
1
1
1
1
1
1
1
1
1
1
1
1
1
1
1
1
1
1
1
1
1
1
1
1
1
1
1
1
1
1
1
1
1
1
1
1
1
1
1
1
1
1
1
1
1
1
1
1
1
1
1
1
1
1
1
1
1
1
1
1
1
1
1
1
1
1
1
1
1
1
1
1
1
1
1
1
1
1
1
1
1
1
1
1
1
1
1
1
1
1
1
1
1
1
1
1
1
1
1
1
1
1
1
1
1
1
1
1
1
1
1
1
1
1
1
1
1
1
1
1
1
1
1
1
1
1
1
1
1
1
1
1
1
1
1
1
1
1
1
1
1
1
1
1
1
1
1
1
1
1
1
1
1
1
1
1
1
1
1
1
1
1
1
1
1
1
1
1
1
1
1
1
1
1
1
1
1
1
1
1
1
1
1
1
1
1
1
1
1
1
1
1
1
1
1
1
1
1
1
1
1
1
1
1
1
1
1
1
1
1
1
1
1
1
1
1
1
1
1
1
1
1
1
1
1
1
1
1
1
1
1
1
1
1
1
1
1
1
1
1
1
1
1
1
1
1
1
1
1
1
1
1
1
1
1
1
1
1
1
1
1
1
1
1
1
1
1
1
1
1
1
1
1
1
1
1
1
1
1
1
1
1
1
1
1
1
1
1
1
1
1
1
1
1
1
1
1
1
1
1
1
1
1
1
1
1
1
1
1
1
1
1
1
1
1
1
1
1
1
1
1
1
1
1
1
1
1
1
1
1
1
1
1
1
1
1
1
1
1
1
1
1
1
1
1
1
1
1
1
1
1
1
1
1
1
1
1
1
1
1
1
1
1
1
1
1
1
1
1
1
1
1
1
1
1
1
1
1
1
1
1
1
1
1
1
1
1
1
1
1
1
1
1
1
1
1
1
1
1
1
1
1
1
1
1
1
1
1
1
1
1
1
1
1
1
1
1
1
1
1
1
1
1
1
1
1
1
1
1
1
1
1
1
1
1
1
1
1
1
1
1
1
1
1
1
1
1
1
1
1
1
1
1
1
1
1
1
1
1
1
1
1
1
1
1
1
1
1
1
1
1
1
1
1
1
1
1
1
1
1
1
1
1
1
1
1
1
1
1
1
1
1
1
1
1
1
1
1
1
1
1
1
1
1
1
1
1
1
1
1
1
1
1
1
1
1
1
1
1
1
1
1
1
1
1
1
1
1
1
1
1
1
1
1
1
1
1
1
1
1
1
1
1
1
1
1
1
1
1
1
1
1
1
1
1
1
1
1
1
1
1
1
1
1
1
1
1
1
1
1
1
1
1
1
1
1
1
1
1
1
1
1
1
1
1
1
1
1
1
1
1
1
1
1
1
1
1
1
1
1
1
1
1
1
1
1
1
1
1
1
1
1
1
1
1
1
1
1
1
1
)
;

boundaryField
{
    inlet
    {
        type            fixedValue;
        value           uniform 1;
    }
    outlet
    {
        type            zeroGradient;
    }
    bottom
    {
        type            symmetryPlane;
    }
    top
    {
        type            symmetryPlane;
    }
    obstacle
    {
        type            zeroGradient;
    }
    defaultFaces
    {
        type            empty;
    }
}


// ************************************************************************* //
