/*--------------------------------*- C++ -*----------------------------------*\
| =========                 |                                                 |
| \\      /  F ield         | OpenFOAM: The Open Source CFD Toolbox           |
|  \\    /   O peration     | Version:  2206                                  |
|   \\  /    A nd           | Website:  www.openfoam.com                      |
|    \\/     M anipulation  |                                                 |
\*---------------------------------------------------------------------------*/
FoamFile
{
    version     2.0;
    format      ascii;
    arch        "LSB;label=32;scalar=64";
    class       volScalarField;
    location    "0.08";
    object      p;
}
// * * * * * * * * * * * * * * * * * * * * * * * * * * * * * * * * * * * * * //

dimensions      [1 -1 -2 0 0 0 0];

internalField   nonuniform List<scalar> 
4800
(
1
1
1
1
1
1
1
1
1
1
1
1
1
1
1
1
1
1
1
1
1
1
1
1
1
1
1
1
1
1
1
1
1
1
1
1
1
1
1
1
1
1
1
1
1
1
1
1
1
1
1
1
1
1
1
1
1
1
1
1
1
1
1
1
1
1
1
1
1
1
1
1
1
1
1
1
1
1
1
1
1
1
1
1
1
1
1
1
1
1
1
1
1
1
1
1
1
1
1
1
1
1
1
1
1
1
1
1
1
1
1
1
1
1
1
1
1
1
1
1
1
1
1
1
1
1
1
1
1
1
1
1
1
1
1
1
1
1
1
1
1
1
1
1
1
1
1
1
1
1
1
1
1
1
1
1
1
1
1
1
1
1
1
1
1
1
1
1
1
1
1
1
1
1
1
1
1
1
1
1
1
1
1
1
1
1
1
1
1
1
1
1
1
1
1
1
1
1
1
1
1
1
1
1
1
1
1
1
1
1
1
1
1
1
1
1
1
1
1
1
1
1
1
1
1
1
1
1
1
1
1
1
1
1
1
1
1
1
1
1
1
1
1
1
1
1
1
1
1
1
1
1
1
1
1
1
1
1
1
1
1
1
1
1
1
1
1
1
1
1
1
1
1
1
1
1
1
1
1
1
1
1
1
1
1
1
1
1
1
1
1
1
1
1
1
1
1
1
1
1
1
1
1
1
1
1
1
1
1
1
1
1
1
1
1
1
1
1
1
1
1
1
1
1
1
1
1
1
1
1
1
1
1
1
1
1
1
1
1
1
1
1
1
1
1
1
1
1
1
1
1
1
1
1
1
1
1
1
1
1
1
1
1
1
1
1
1
1
1
1
1
1
1
1
1
1
1
1
1
1
1
1
1
1
1
1
1
1
1
1
1
1
1
1
1
1
1
1
1
1
1
1
1
1
1
1
1
1
1
1
1
1
1
1
1
1
1
1
1
1
1
1
1
1
1
1
1
1
1
1
1
1
1
1
1
1
1
1
1
1
1
1
1
1
1
1
1
1
1
1
1
1
1
1
1
1
1
1
1
1
1
1
1
1
1
1
1
1
1
1
1
1
1
1
1
1
1
1
1
1
1
1
1
1
1
1
1
1
1
1
1
1
1
1
1
1
1
1
1
1
1
1
1
1
1
1
1
1
1
1
1
1
1
1
1
1
1
1
1
1
1
1
1
1
1
1
1
1
1
1
1
1
1
1
1
1
1
1
1
1
1
1
1
1
1
1
1
1
1
1
1
1
1
1
1
1
1
1
1
1
1
1
1
1
1
1
1
1
1
1
1
1
1
1
1
1
1
1
1
1
1
1
1
1
1
1
1
1
1
1
1
1
1
1
1
1
1
1
1
1
1
1
1
1
1
1
1
1
1
1
1
1
1
1
1
1
1
1
1
1
1
1
1
1
1
1
1
1
1
1
1
1
1
1
1
1
1
1
1
1
1
1
1
1
1
1
1
1
1
1
1
1
1
1
1
1
1
1
1
1
1
1
1
1
1
1
1
1
1
1
1
1
1
1
1
1
1
1
1
1
1
1
1
1
1
1
1
1
1
1
1
1
1
1
1
1
1
1
1
1
1
1
1
1
1
1
1
1
1
1
1
1
1
1
1
1
1
1
1
1
1
1
1
1
1
1
1
1
1
1
1
1
1
1
1
1
1
1
1
1
1
1
1
1
1
1
1
1
1
1
1
1
1
1
1
1
1
1
1
1
1
1
1
1
1
1
1
1
1
1
1
1
1
1
1
1
1
1
1
1
1
1
1
1
1
1
1
1
1
1
1
1
1
1
1
1
1
1
1
1
1
1
1
1
1
1
1
1
1
1
1
1
1
1
1
1
1
1
1
1
1
1
1
1
1
1
1
1
1
1
1
1
1
1
1
1
1
1
1
1
1
1
1
1
1
1
1
1
1
1
1
1
1
1
1
1
1
1
1
1
1
1
1
1
1
1
1
1
1
1
1
1
1
1
1
1
1
1
1
1
1
1
1
1
1
1
1
1
1
1
1
1
1
1
1
1
1
1
1
1
1
1
1
1
1
1
1
1
1
1
1
1
1
1
1
1
1
1
1
1
1
1
1
1
1
1
1
1
1
1
1
1
1
1
1
1
1
1
1
1
1
1
1
1
1
1
1
1
1
1
1
1
1
1
1
1
1
1
1
1
1
1
1
1
1
1
1
1
1
1
1
1
1
1
1
1
1
1
1
1
1
1
1
1
1
1
1
1
1
1
1
1
1
1
1
1
1
1
1
1
1
1
1
1
1
1
1
1
1
1
1
1
1
1
1
1
1
1
1
1
1
1
1
1
1
1
1
1
1
1
1
1
1
1
1
1
1
1
1
1
1
1
1
1
1
1
1
1
1
1
1
1
1
1
1
1
1
1
1
1
1
1
1
1
1
1
1
1
1
1
1
1
1
1
1
1
1
1
1
1
1
1
1
1
1
1
1
1
1
1
1
1
1
1
1
1
1
1
1
1
1
1
1
1
1
1
1
1
1
1
1
1
1
1
1
1
1
1
1
1
1
1
1
1
1
1
1
1
1
1
1
1
1
1
1
1
1
1
1
1
1
1
1
1
1
1
1
1
1
1
1
1
1
1
1
1
1
1
1
1
1
1
1
1
1
1
1
1
1
1
1
1
1
1
1
1
1
1
1
1
1
1
1
1
1
1
1
1
1
1
1
1
1
1
1
1
1
1
1
1
1
1
1
1
1
1
1
1
1
1
1
1
1
1
1
1
1
1
1
1
1
1
1
1
1
1
1
1
1
1
1
1
1
1
1
1
1
1
1
1
1
1
1
1
1
1
1
1
1
1
1
1
1
1
1
1
1
1
1
1
1
1
1
1
1
1
1
1
1
1
1
1
1
1
1
1
1
1
1
1
1
1
1
1
1
1
1
1
1
1
1
1
1
1
1
1
1
1
1
1
1
1
1
1
1
1
1
1
1
1
1
1
1
1
1
1
1
1
1
1
1
1
1
1
1
1
1
1
1
1
1
1
1
1
1
1
1
1
1
1
1
1
1
1
1
1
1
1
1
1
1
1
1
1
1
1
1
1
1
1
1
1
1
1
1
1
1
1
1
1
1
1
1
1
1
1
1
1
1
1
1
1
1
1
1
1
1
1
1
1
1
1
1
1
1
1
1
1
1
1
1
1
1
1
1
1
1
1
1
1
1
1
1
1
1
1
1
1
1
1
1
1
1
1
1
1
1
1
1
1
1
1
1
1
1
1
1
1
1
1
1
1
1
1
1
1
1
1
1
1
1
1
1
1
1
1
1
1
1
1
1
1
1
1
1
1
1
1
1
1
1
1
1
1
1
1
1
1
1
1
1
1
1
1
1
1
1
1
1
1
1
1
1
1
1
1
1
1
1
1
1
1
1
1
1
1
1
1
1
1
1
1
1
1
1
1
1
1
1
1
1
1
1
1
1
1
1
1
1
1
1
1
1
1
1
1
1
1
1
1
1
1
1
1
1
1
1
1
1
1
1
1
1
1
1
1
1
1
1
1
1
1
1
1
1
1
1
1
1
1
1
1
1
1
1
1
1
1
1
1
1
1
1
1
1
1
1
1
1
1
1
1
1
1
1
1
1
1
1
1
1.2667
1.68069
2.19812
2.77748
3.25926
3.77657
4.52594
4.89282
5.16275
5.58627
5.78125
5.74593
5.62292
5.4144
5.07679
4.6704
4.20196
4.01984
3.98171
3.91562
3.82832
3.82727
3.8646
3.93602
3.99531
3.99883
4.00304
4.02962
4.06563
4.0924
4.09512
4.09036
4.09509
4.11272
4.12334
4.12337
4.11951
4.11164
4.10161
4.09205
4.08199
4.07705
4.07721
4.07852
4.08708
4.10838
4.13162
4.14468
4.14724
4.14529
4.14
4.13161
4.11674
4.0986
4.08685
4.07847
4.07323
4.07084
4.06644
4.05285
4.03442
4.01593
3.98963
3.95138
3.92175
3.91207
3.90607
3.90011
3.89643
3.8944
3.89079
3.88565
3.88111
3.87698
3.87541
3.87475
3.87341
3.87178
3.8714
3.86765
0.999674
1.00385
1.01264
1.06444
1.21156
1.35402
1.57043
1.96984
2.31921
2.75803
3.1765
3.57869
3.88486
4.10073
4.2543
4.36473
4.36982
4.32746
4.35328
4.34332
4.25227
4.14378
4.09041
4.07811
4.02762
3.98318
3.97707
3.99315
4.03055
4.06355
4.06829
4.06635
4.0713
4.08927
4.10081
4.10631
4.10989
4.10948
4.10992
4.11232
4.11293
4.10908
4.1005
4.09022
4.08697
4.08939
4.09824
4.10875
4.11618
4.12191
4.12586
4.12619
4.12293
4.12077
4.11921
4.11391
4.10426
4.09131
4.07498
4.04879
4.0134
3.9787
3.94955
3.92364
3.91448
3.91034
3.90624
3.90174
3.89745
3.89345
3.8894
3.88444
3.87933
3.87579
3.87463
3.87333
3.87139
3.86897
3.86659
3.85997
1
1
0.999997
1
1
0.999814
0.999644
1.01115
1.0455
1.14599
1.36873
1.71067
2.29646
3.0188
3.89017
4.27101
4.58922
4.71232
4.6865
4.65102
4.56647
4.44136
4.25119
4.10899
4.03971
3.97427
3.97345
3.98818
4.02649
4.07795
4.07799
4.06518
4.05009
4.04699
4.05208
4.06151
4.07992
4.10734
4.12503
4.13194
4.13331
4.13269
4.12611
4.11311
4.09998
4.09242
4.09213
4.09111
4.08898
4.08899
4.09534
4.10612
4.11828
4.12914
4.13248
4.1298
4.12202
4.10954
4.09004
4.05783
4.01176
3.9622
3.92491
3.91401
3.91197
3.91184
3.91014
3.90569
3.89897
3.8922
3.88774
3.88407
3.87936
3.87614
3.87559
3.87542
3.87583
3.87538
3.87123
3.86214
1
1
1
1
1
1
1
1
1
1
0.999486
1.00181
1.03625
1.18406
1.54363
2.22517
2.9181
3.75215
4.04358
4.25514
4.2891
4.22955
4.23885
4.2929
4.29365
4.21902
4.14693
4.13423
4.13307
4.11252
4.06841
4.01716
3.99622
3.99592
4.00722
4.02836
4.05372
4.08396
4.11232
4.12997
4.13933
4.14521
4.14345
4.13191
4.11849
4.1075
4.09918
4.09809
4.09635
4.08994
4.08413
4.08734
4.09606
4.10856
4.12232
4.13282
4.13239
4.12206
4.10043
4.06405
4.01199
3.94911
3.91901
3.91469
3.91407
3.91748
3.91943
3.91537
3.90617
3.89458
3.88346
3.87487
3.87127
3.87037
3.87155
3.87553
3.87881
3.87961
3.87465
3.86177
1
1
1
1
1
1
1
1
1
1
1
0.999999
1
0.999759
1.00031
1.03532
1.16163
1.4993
2.18403
2.90592
3.63989
3.93808
4.28362
4.42824
4.39754
4.36934
4.32993
4.28272
4.17673
4.11573
4.08374
4.03793
4.01573
4.01277
4.01818
4.02746
4.04788
4.06516
4.07526
4.08329
4.09088
4.10243
4.11422
4.12023
4.12235
4.12384
4.12656
4.12514
4.11902
4.10864
4.09787
4.0963
4.09826
4.09934
4.09977
4.10332
4.10644
4.10028
4.08235
4.05431
4.00837
3.9445
3.92366
3.92047
3.92038
3.92616
3.9302
3.92602
3.91813
3.908
3.89133
3.87446
3.86672
3.86375
3.86194
3.8628
3.87135
3.87892
3.87986
3.87039
1
1
1
1
1
1
1
1
1
1
1
1
1
1
1
1
0.999782
1.00058
1.03894
1.15888
1.48776
2.11453
2.81054
3.54798
3.77449
4.02148
4.10665
4.11279
4.15307
4.19176
4.19601
4.16131
4.1333
4.11566
4.09437
4.07684
4.06175
4.04411
4.03572
4.0342
4.04075
4.05532
4.07341
4.09231
4.11237
4.13579
4.15013
4.15197
4.14975
4.14281
4.12841
4.113
4.11077
4.1097
4.10249
4.09475
4.08908
4.07948
4.06146
4.03571
3.99297
3.93942
3.92373
3.91992
3.92008
3.92527
3.92712
3.92407
3.92036
3.9139
3.90035
3.88466
3.87047
3.86063
3.85545
3.85216
3.85695
3.8715
3.88193
3.87455
1
1
1
1
1
1
1
1
1
1
1
1
1
1
1
1
1
0.999998
1.00001
0.999841
1.0012
1.03485
1.14288
1.50175
2.14925
2.82906
3.47157
3.78277
4.1221
4.23042
4.22282
4.22016
4.20226
4.18007
4.1369
4.11181
4.09052
4.06635
4.04034
4.02283
4.01908
4.02359
4.03604
4.05354
4.07699
4.10992
4.14015
4.1544
4.15829
4.15452
4.14486
4.13883
4.13041
4.11739
4.10611
4.09369
4.08344
4.07341
4.05815
4.0319
3.98873
3.94293
3.92775
3.92084
3.91591
3.91349
3.91126
3.9082
3.9062
3.90392
3.8975
3.88571
3.87179
3.86037
3.85395
3.85096
3.85173
3.8599
3.87254
3.87315
1
1
1
1
1
1
1
1
1
1
1
1
1
1
1
1
1
1
1
0.999999
0.999996
1.00001
0.999887
1.00254
1.04601
1.16106
1.55628
2.17504
2.9026
3.45366
3.69407
3.94305
3.99887
4.03353
4.09567
4.15634
4.16526
4.15176
4.12841
4.10302
4.07686
4.05054
4.03778
4.04055
4.05201
4.07268
4.08783
4.0996
4.1153
4.12585
4.13177
4.1362
4.1389
4.13601
4.12869
4.11845
4.10473
4.08822
4.06551
4.03294
3.99374
3.95966
3.93587
3.9216
3.91243
3.89886
3.88599
3.87963
3.87611
3.87679
3.8856
3.89206
3.8906
3.881
3.86643
3.8558
3.84991
3.852
3.86109
3.86688
1
1
1
1
1
1
1
1
1
1
1
1
1
1
1
1
1
1
1
1
1
1
0.999999
0.999993
1.00003
0.99997
1.00494
1.05242
1.19178
1.63876
2.25025
3.00201
3.45883
3.75393
4.04419
4.11425
4.14147
4.15756
4.1581
4.14331
4.11201
4.09927
4.08738
4.0821
4.08141
4.07173
4.0607
4.06133
4.06952
4.07675
4.08425
4.09767
4.11859
4.13209
4.13048
4.12479
4.11502
4.09934
4.07534
4.04068
4.00188
3.97499
3.959
3.94139
3.91618
3.88991
3.86973
3.86045
3.85757
3.85692
3.86375
3.88292
3.89306
3.88969
3.8798
3.87059
3.86156
3.85136
3.85113
3.85786
1
1
1
1
1
1
1
1
1
1
1
1
1
1
1
1
1
1
1
1
1
1
1
1
1
0.999999
1
0.999989
1.00012
1.01029
1.06738
1.2511
1.80559
2.46119
3.18918
3.49767
3.75946
3.93469
4.03323
4.07666
4.10528
4.13621
4.14937
4.15442
4.14988
4.13469
4.11408
4.08425
4.06023
4.05955
4.06849
4.08151
4.09586
4.10258
4.09891
4.09681
4.09525
4.08646
4.06574
4.03165
3.99397
3.96977
3.95607
3.94774
3.94108
3.92595
3.89724
3.86669
3.85372
3.85076
3.85008
3.8594
3.88553
3.89592
3.88884
3.87935
3.87001
3.85961
3.84727
3.84565
1
1
1
1
1
1
1
1
1
1
1
1
1
1
1
1
1
1
1
1
1
1
1
1
1
1
1
0.999999
0.999999
1.00001
0.999982
1.00072
1.0246
1.11335
1.38668
1.97182
2.68452
3.34561
3.59505
3.82222
3.95143
4.0545
4.12483
4.15888
4.16347
4.1561
4.13929
4.12633
4.11835
4.11159
4.10964
4.10802
4.10405
4.09784
4.08886
4.07979
4.07354
4.0629
4.04247
4.00917
3.96165
3.93778
3.93247
3.93416
3.93395
3.92992
3.92598
3.91102
3.87663
3.85086
3.84709
3.85028
3.8682
3.89011
3.89206
3.88243
3.87036
3.85745
3.84591
3.84589
1
1
1
1
1
1
1
1
1
1
1
1
1
1
1
1
1
1
1
1
1
1
1
1
1
1
1
1
1
1
0.999999
0.999997
1.00001
1.00009
1.0031
1.04488
1.16642
1.58874
2.26909
3.05398
3.46095
3.6877
3.86925
3.98073
4.04722
4.07701
4.10562
4.1287
4.13927
4.14017
4.1473
4.15745
4.16006
4.15015
4.12524
4.09555
4.07604
4.05877
4.03508
4.00006
3.94807
3.90464
3.89087
3.88802
3.89485
3.92155
3.93978
3.9395
3.92228
3.88395
3.85686
3.85045
3.85161
3.86728
3.88757
3.88678
3.87045
3.85379
3.8408
3.84164
1
1
1
1
1
1
1
1
1
1
1
1
1
1
1
1
1
1
1
1
1
1
1
1
1
1
1
1
1
1
1
1
1
1
1
1
1.0004
1.01303
1.09825
1.32604
1.88753
2.61328
3.44402
3.67568
3.81732
3.88915
3.93372
3.99767
4.05437
4.11457
4.14207
4.15868
4.16322
4.15551
4.13763
4.11987
4.11108
4.09989
4.07933
4.04192
3.97779
3.90572
3.87775
3.87283
3.87233
3.8813
3.91313
3.93123
3.92701
3.90739
3.87283
3.85282
3.84499
3.84799
3.87411
3.89071
3.87684
3.85613
3.84279
3.84141
1
1
1
1
1
1
1
1
1
1
1
1
1
1
1
1
1
1
1
1
1
1
1
1
1
1
1
1
1
1
1
1
1
1
1
1
0.999999
0.999989
1.00016
1.00259
1.04585
1.18784
1.61765
2.33109
3.16381
3.71748
3.79061
3.89751
3.94703
3.97127
4.01854
4.07098
4.10189
4.10296
4.10248
4.10326
4.10315
4.10288
4.09675
4.07836
4.0427
3.98882
3.92062
3.86624
3.85211
3.85115
3.85926
3.89435
3.92266
3.91697
3.89078
3.85779
3.84307
3.83748
3.85238
3.88155
3.8803
3.8608
3.84531
3.84105
1
1
1
1
1
1
1
1
1
1
1
1
1
1
1
1
1
1
1
1
1
1
1
1
1
1
1
1
1
1
1
1
1
1
1
1
1
0.999999
0.999999
0.999996
1.00004
1.00089
1.01632
1.13866
1.44161
2.07027
2.82469
3.63023
3.91755
3.93937
4.00726
4.02871
4.02716
4.02967
4.03092
4.0278
4.02005
4.02146
4.04208
4.06058
4.05138
4.02823
3.99474
3.93165
3.86084
3.83926
3.8402
3.8575
3.89832
3.91637
3.90417
3.87319
3.84452
3.83364
3.83346
3.85666
3.87652
3.869
3.85358
3.84231
1
1
1
1
1
1
1
1
1
1
1
1
1
1
1
1
1
1
1
1
1
1
1
1
1
1
1
1
1
1
1
1
1
1
1
1
1
1
1
1
1
1
0.99999
1.00059
1.00663
1.08212
1.32873
1.93235
2.71646
3.46666
3.96121
4.06023
4.05852
4.08546
4.07233
4.03294
3.99392
3.96668
3.95082
3.94516
3.97983
4.01659
4.00885
3.98327
3.93407
3.86568
3.83921
3.83687
3.85341
3.89421
3.90723
3.89011
3.85483
3.83085
3.8244
3.83678
3.86629
3.87501
3.86928
3.85329
1
1
1
1
1
1
1
1
1
1
1
1
1
1
1
1
1
1
1
1
1
1
1
1
1
1
1
1
1
1
1
1
1
1
1
1
1
1
1
1
1
1
0.999999
1
0.999991
1.00027
1.00435
1.05189
1.31642
1.83994
2.63075
3.35518
3.87471
4.09947
4.11805
4.13212
4.12598
4.05963
3.95397
3.8915
3.88205
3.90025
3.96609
3.99067
3.9777
3.9241
3.85069
3.82462
3.82356
3.8537
3.89766
3.90045
3.87727
3.84107
3.82461
3.82425
3.84419
3.87351
3.87856
3.86691
1
1
1
1
1
1
1
1
1
1
1
1
1
1
1
1
1
1
1
1
1
1
1
1
1
1
1
1
1
1
1
1
1
1
1
1
1
1
1
1
1
1
1
1
0.999999
0.999999
0.999994
1.00011
1.00438
1.03998
1.27719
1.79255
2.59757
3.31003
3.77254
4.06704
4.13627
4.14137
4.10782
3.96618
3.84362
3.83032
3.8584
3.94595
3.9705
3.95395
3.89506
3.8225
3.80585
3.81499
3.86211
3.89972
3.89754
3.87421
3.83634
3.82198
3.82566
3.85402
3.87242
3.86818
1
1
1
1
1
1
1
1
1
1
1
1
1
1
1
1
1
1
1
1
1
1
1
1
1
1
1
1
1
1
1
1
1
1
1
1
1
1
1
1
1
1
1
1
1
1
0.999999
0.999999
0.999995
1.00007
1.00373
1.03461
1.27063
1.88176
2.66641
3.28329
3.82629
4.10658
4.1056
4.07034
3.93117
3.82684
3.8218
3.85679
3.94266
3.95976
3.93943
3.87616
3.8068
3.79656
3.81334
3.86884
3.90193
3.89671
3.87232
3.83252
3.82094
3.8254
3.84887
3.86436
1
1
1
1
1
1
1
1
1
1
1
1
1
1
1
1
1
1
1
1
1
1
1
1
1
1
1
1
1
1
1
1
1
1
1
1
1
1
1
1
1
1
1
1
1
1
1
1
0.999999
0.999999
0.999995
1.00007
1.00458
1.04772
1.31035
1.95263
2.75118
3.44727
3.95859
4.03536
4.00583
3.9113
3.78988
3.78054
3.84947
3.94946
3.96099
3.93609
3.8656
3.79475
3.78623
3.80888
3.87212
3.8988
3.89537
3.87384
3.82659
3.80625
3.8099
3.8363
1
1
1
1
1
1
1
1
1
1
1
1
1
1
1
1
1
1
1
1
1
1
1
1
1
1
1
1
1
1
1
1
1
1
1
1
1
1
1
1
1
1
1
1
1
1
1
1
1
1
0.999999
0.999999
0.999995
1.00017
1.00593
1.06982
1.39397
2.07676
2.90265
3.63891
3.94914
3.93623
3.82577
3.7234
3.74698
3.86234
3.94777
3.95341
3.93115
3.85679
3.78442
3.77953
3.80587
3.87218
3.8926
3.88399
3.86003
3.81505
3.79898
3.81061
1
1
1
1
1
1
1
1
1
1
1
1
1
1
1
1
1
1
1
1
1
1
1
1
1
1
1
1
1
1
1
1
1
1
1
1
1
1
1
1
1
1
1
1
1
1
1
1
1
1
1
1
0.999999
0.999999
0.999996
1.00044
1.00959
1.10989
1.50561
2.25862
3.06819
3.71898
3.82859
3.7926
3.71457
3.72033
3.8299
3.93139
3.93781
3.92319
3.86124
3.78294
3.77248
3.79114
3.84815
3.88004
3.8778
3.86265
3.81796
3.80433
1
1
1
1
1
1
1
1
1
1
1
1
1
1
1
1
1
1
1
1
1
1
1
1
1
1
1
1
1
1
1
1
1
1
1
1
1
1
1
1
1
1
1
1
1
1
1
1
1
1
1
1
1
1
0.999999
0.999999
1
1.00102
1.01861
1.17458
1.61186
2.34951
3.20202
3.72273
3.74826
3.66742
3.66895
3.76909
3.90295
3.92211
3.91739
3.87132
3.79298
3.76755
3.77584
3.82569
3.87277
3.87325
3.86272
3.82162
1
1
1
1
1
1
1
1
1
1
1
1
1
1
1
1
1
1
1
1
1
1
1
1
1
1
1
1
1
1
1
1
1
1
1
1
1
1
1
1
1
1
1
1
1
1
1
1
1
1
1
1
1
1
1
1
1
0.999998
1.00004
1.00225
1.03034
1.21546
1.7143
2.49734
3.29863
3.66702
3.6253
3.63286
3.7012
3.86085
3.90873
3.91192
3.89175
3.81439
3.75949
3.76309
3.80098
3.85961
3.86769
3.85407
1
1
1
1
1
1
1
1
1
1
1
1
1
1
1
1
1
1
1
1
1
1
1
1
1
1
1
1
1
1
1
1
1
1
1
1
1
1
1
1
1
1
1
1
1
1
1
1
1
1
1
1
1
1
1
1
1
1
1
0.999998
1.00011
1.00355
1.0474
1.25685
1.78292
2.5733
3.36248
3.56404
3.57062
3.62945
3.79135
3.89861
3.90468
3.89944
3.83495
3.75463
3.74946
3.77604
3.84362
3.8645
1
1
1
1
1
1
1
1
1
1
1
1
1
1
1
1
1
1
1
1
1
1
1
1
1
1
1
1
1
1
1
1
1
1
1
1
1
1
1
1
1
1
1
1
1
1
1
1
1
1
1
1
1
1
1
1
1
1
1
1
1
0.999998
1.00025
1.0049
1.05954
1.2913
1.86852
2.6707
3.37401
3.49728
3.58121
3.70678
3.86873
3.89236
3.89491
3.84287
3.74836
3.73699
3.77067
3.84777
1
1
1
1
1
1
1
1
1
1
1
1
1
1
1
1
1
1
1
1
1
1
1
1
1
1
1
1
1
1
1
1
1
1
1
1
1
1
1
1
1
1
1
1
1
1
1
1
1
1
1
1
1
1
1
1
1
1
1
1
1
1
1
0.999999
1.00039
1.00728
1.0774
1.34403
1.96892
2.84164
3.34227
3.49034
3.61225
3.8093
3.87948
3.8831
3.84117
3.74787
3.7347
3.78829
1
1
1
1
1
1
1
1
1
1
1
1
1
1
1
1
1
1
1
1
1
1
1
1
1
1
1
1
1
1
1
1
1
1
1
1
1
1
1
1
1
1
1
1
1
1
1
1
1
1
1
1
1
1
1
1
1
1
1
1
1
1
1
1
0.999999
1
1.00067
1.0113
1.10386
1.44212
2.13611
2.98197
3.32376
3.50665
3.73331
3.86064
3.87072
3.84208
3.75316
3.75794
1
1
1
1
1
1
1
1
1
1
1
1
1
1
1
1
1
1
1
1
1
1
1
1
1
1
1
1
1
1
1
1
1
1
1
1
1
1
1
1
1
1
1
1
1
1
1
1
1
1
1
1
1
1
1
1
1
1
1
1
1
1
1
1
1
1
0.999999
1.00002
1.00125
1.0203
1.14636
1.56461
2.37316
3.02758
3.34365
3.63898
3.84809
3.85625
3.84145
3.76035
1
1
1
1
1
1
1
1
1
1
1
1
1
1
1
1
1
1
1
1
1
1
1
1
1
1
1
1
1
1
1
1
1
1
1
1
1
1
1
1
1
1
1
1
1
1
1
1
1
1
1
1
1
1
1
1
1
1
1
1
1
1
1
1
1
1
1
1
0.999999
1.00007
1.00247
1.03531
1.21776
1.77933
2.56609
3.09943
3.52947
3.82302
3.84154
3.81707
1
1
1
1
1
1
1
1
1
1
1
1
1
1
1
1
1
1
1
1
1
1
1
1
1
1
1
1
1
1
1
1
1
1
1
1
1
1
1
1
1
1
1
1
1
1
1
1
1
1
1
1
1
1
1
1
1
1
1
1
1
1
1
1
1
1
1
1
1
1
0.999999
1.00022
1.00595
1.06673
1.35484
2.04555
2.77024
3.3499
3.74928
3.80038
1
1
1
1
1
1
1
1
1
1
1
1
1
1
1
1
1
1
1
1
1
1
1
1
1
1
1
1
1
1
1
1
1
1
1
1
1
1
1
1
1
1
1
1
1
1
1
1
1
1
1
1
1
1
1
1
1
1
1
1
1
1
1
1
1
1
1
1
1
1
1
0.999999
1.00001
1.00074
1.01593
1.13005
1.58734
2.3426
3.09124
3.60607
1
1
1
1
1
1
1
1
1
1
1
1
1
1
1
1
1
1
1
1
1
1
1
1
1
1
1
1
1
1
1
1
1
1
1
1
1
1
1
1
1
1
1
1
1
1
1
1
1
1
1
1
1
1
1
1
1
1
1
1
1
1
1
1
1
1
1
1
1
1
1
1
1
0.999999
1.00007
1.00263
1.0405
1.26904
1.8375
2.96897
1
1
1
1
1
1
1
1
1
1
1
1
1
1
1
1
1
1
1
1
1
1
1
1
1
1
1
1
1
1
1
1
1
1
1
1
1
1
1
1
1
1
1
1
1
1
1
1
1
1
1
1
1
1
1
1
1
1
1
1
1
1
1
1
1
1
1
1
1
1
1
1
1
1
1
1
1.00034
1.01026
1.0847
1.88164
1
1
1
1
1
1
1
1
1
1
1
1
1
1
1
1
1
1
1
1
1
1
1
1
1
1
1
1
1
1
1
1
1
1
1
1
1
1
1
1
1
1
1
1
1
1
1
1
1
1
1
1
1
1
1
1
1
1
1
1
1
1
1
1
1
1
1
1
1
1
1
1
1
1
1
1
1
1.00004
1.00152
1.1659
1
1
1
1
1
1
1
1
1
1
1
1
1
1
1
1
1
1
1
1
1
1
1
1
1
1
1
1
1
1
1
1
1
1
1
1
1
1
1
1
1
1
1
1
1
1
1
1
1
1
1
1
1
1
1
1
1
1
1
1
1
1
1
1
1
1
1
1
1
1
1
1
1
1
1
1
1
1
1.00001
1.01013
1
1
1
1
1
1
1
1
1
1
1
1
1
1
1
1
1
1
1
1
1
1
1
1
1
1
1
1
1
1
1
1
1
1
1
1
1
1
1
1
1
1
1
1
1
1
1
1
1
1
1
1
1
1
1
1
1
1
1
1
1
1
1
1
1
1
1
1
1
1
1
1
1
1
1
1
1
1
1
1.00017
1
1
1
1
1
1
1
1
1
1
1
1
1
1
1
1
1
1
1
1
1
1
1
1
1
1
1
1
1
1
1
1
1
1
1
1
1
1
1
1
1
1
1
1
1
1
1
1
1
1
1
1
1
1
1
1
1
1
1
1
1
1
1
1
1
1
1
1
1
1
1
1
1
1
1
1
1
1
1
1
1
1
1
1
1
1
1
1
1
1
1
1
1
1
1
1
1
1
1
1
1
1
1
1
1
1
1
1
1
1
1
1
1
1
1
1
1
1
1
1
1
1
1
1
1
1
1
1
1
1
1
1
1
1
1
1
1
1
1
1
1
1
1
1
1
1
1
1
1
1
1
1
1
1
1
1
1
1
1
1
1
1
1
1
1
1
1
1
1
1
1
1
1
1
1
1
1
1
1
1
1
1
1
1
1
1
1
1
1
1
1
1
1
1
1
1
1
1
1
1
1
1
1
1
1
1
1
1
1
1
1
1
1
1
1
1
1
1
1
1
1
1
1
1
1
1
1
1
1
1
1
1
1
1
1
1
1
1
1
1
)
;

boundaryField
{
    inlet
    {
        type            fixedValue;
        value           uniform 1;
    }
    outlet
    {
        type            zeroGradient;
    }
    bottom
    {
        type            symmetryPlane;
    }
    top
    {
        type            symmetryPlane;
    }
    obstacle
    {
        type            zeroGradient;
    }
    defaultFaces
    {
        type            empty;
    }
}


// ************************************************************************* //
