/*--------------------------------*- C++ -*----------------------------------*\
| =========                 |                                                 |
| \\      /  F ield         | OpenFOAM: The Open Source CFD Toolbox           |
|  \\    /   O peration     | Version:  2206                                  |
|   \\  /    A nd           | Website:  www.openfoam.com                      |
|    \\/     M anipulation  |                                                 |
\*---------------------------------------------------------------------------*/
FoamFile
{
    version     2.0;
    format      ascii;
    arch        "LSB;label=32;scalar=64";
    class       volVectorField;
    location    "0.08";
    object      U;
}
// * * * * * * * * * * * * * * * * * * * * * * * * * * * * * * * * * * * * * //

dimensions      [0 1 -1 0 0 0 0];

internalField   nonuniform List<vector> 
4800
(
(5.42424 -5.85101e-15 0)
(5.42424 -5.09188e-14 0)
(5.42424 -5.5993e-14 0)
(5.42424 -2.60178e-14 0)
(5.42424 -1.22588e-14 0)
(5.42424 -5.11155e-14 0)
(5.42424 -1.06608e-13 0)
(5.42424 -7.26059e-14 0)
(5.42424 -3.99702e-14 0)
(5.42424 -3.67297e-14 0)
(5.42424 -1.18787e-14 0)
(5.42424 -3.2939e-15 0)
(5.42424 -3.13154e-14 0)
(5.42424 -7.3596e-14 0)
(5.42424 -5.38826e-14 0)
(5.42424 -2.31073e-14 0)
(5.42424 2.08169e-14 0)
(5.42424 3.13387e-14 0)
(5.42424 1.64628e-14 0)
(5.42424 6.07772e-15 0)
(5.42424 -8.44479e-15 0)
(5.42424 -1.11653e-14 0)
(5.42424 -8.56815e-15 0)
(5.42424 -2.44709e-15 0)
(5.42424 6.65448e-14 0)
(5.42424 7.12856e-14 0)
(5.42424 3.56328e-14 0)
(5.42424 -1.57494e-14 0)
(5.42424 -6.29775e-15 0)
(5.42424 -1.44192e-14 0)
(5.42424 3.96402e-15 0)
(5.42424 3.98769e-14 0)
(5.42424 5.61697e-14 0)
(5.42424 5.55896e-14 0)
(5.42424 6.45812e-14 0)
(5.42424 1.69996e-14 0)
(5.42424 -5.48795e-14 0)
(5.42424 -7.60298e-14 0)
(5.42424 -5.08488e-14 0)
(5.42424 -3.72031e-14 0)
(5.42424 5.53429e-16 0)
(5.42424 -3.37392e-14 0)
(5.42424 -1.89699e-14 0)
(5.42424 3.23323e-14 0)
(5.42424 3.79165e-14 0)
(5.42424 -2.34907e-14 0)
(5.42424 -1.05952e-13 0)
(5.42424 -1.08199e-13 0)
(5.42424 -8.87753e-14 0)
(5.42424 -6.5548e-14 0)
(5.42424 -4.44243e-14 0)
(5.42424 -5.6133e-14 0)
(5.42424 -7.52497e-14 0)
(5.42424 -8.08973e-14 0)
(5.42424 -3.70364e-14 0)
(5.42424 -3.4716e-14 0)
(5.42424 1.3499e-14 0)
(5.42424 4.29641e-14 0)
(5.42424 2.65312e-14 0)
(5.42424 2.29973e-14 0)
(5.42424 -4.42276e-14 0)
(5.42424 -5.96236e-14 0)
(5.42424 -6.81684e-14 0)
(5.42424 -2.56611e-14 0)
(5.42424 5.10755e-15 0)
(5.42424 4.01803e-14 0)
(5.42424 1.40024e-14 0)
(5.42424 -5.9797e-14 0)
(5.42424 -6.58614e-14 0)
(5.42424 -5.32992e-14 0)
(5.42424 -3.24089e-14 0)
(5.42424 -2.61145e-14 0)
(5.42424 -1.65429e-14 0)
(5.42424 -6.00104e-16 0)
(5.42424 3.20622e-14 0)
(5.42424 -1.18554e-14 0)
(5.42424 -5.54896e-14 0)
(5.42424 -1.03231e-13 0)
(5.42424 -6.61114e-14 0)
(5.42424 -2.25291e-14 0)
(5.42424 1.10019e-15 0)
(5.42424 1.83232e-14 0)
(5.42424 2.68046e-14 0)
(5.42424 1.66162e-14 0)
(5.42424 2.10036e-15 0)
(5.42424 -1.69496e-14 0)
(5.42424 -4.61646e-14 0)
(5.42424 -5.89168e-14 0)
(5.42424 -1.77997e-14 0)
(5.42424 1.68096e-14 0)
(5.42424 2.50077e-14 0)
(5.42424 1.42625e-14 0)
(5.42424 -4.38742e-15 0)
(5.42424 1.26755e-14 0)
(5.42424 -1.54793e-14 0)
(5.42424 -9.42496e-15 0)
(5.42424 -2.08003e-14 0)
(5.42424 6.20741e-14 0)
(5.42424 9.99206e-14 0)
(5.42424 6.33843e-14 0)
(5.42424 -1.09486e-14 0)
(5.42424 -5.67431e-15 0)
(5.42424 -1.1492e-14 0)
(5.42424 -8.05472e-15 0)
(5.42424 -3.75832e-14 0)
(5.42424 -2.76748e-14 0)
(5.42424 -3.62529e-14 0)
(5.42424 -5.01187e-14 0)
(5.42424 -1.21901e-13 0)
(5.42424 -1.43518e-13 0)
(5.42424 -1.01594e-13 0)
(5.42424 -6.41777e-14 0)
(5.42424 -5.36793e-14 0)
(5.42424 1.29956e-14 0)
(5.42424 1.20387e-14 0)
(5.42424 -7.5313e-15 0)
(5.42424 -4.41276e-14 0)
(5.42424 -2.73247e-14 0)
(5.42424 9.74868e-14 0)
(5.42424 1.51725e-13 0)
(5.42424 -6.52113e-15 0)
(5.42424 -2.27073e-14 0)
(5.42424 -4.31641e-14 0)
(5.42424 -9.93105e-14 0)
(5.42424 -1.10756e-13 0)
(5.42424 -1.17417e-13 0)
(5.42424 -1.04521e-13 0)
(5.42424 -8.61349e-14 0)
(5.42424 -3.84866e-14 0)
(5.42424 -3.99236e-14 0)
(5.42424 -5.28525e-14 0)
(5.42424 -4.2504e-14 0)
(5.42424 -4.20306e-14 0)
(5.42424 -7.18857e-14 0)
(5.42424 -4.77883e-14 0)
(5.42424 1.84232e-14 0)
(5.42424 1.41524e-14 0)
(5.42424 5.02087e-15 0)
(5.42424 -1.01084e-14 0)
(5.42424 -1.74764e-14 0)
(5.42424 6.11772e-15 0)
(5.42424 7.1299e-14 0)
(5.42424 6.9412e-14 0)
(5.42424 1.61895e-14 0)
(5.42424 -2.38775e-14 0)
(5.42424 -4.29808e-14 0)
(5.42424 -4.21139e-14 0)
(5.42424 -7.05622e-14 0)
(5.42424 -7.77201e-14 0)
(5.42424 -7.10456e-14 0)
(5.42424 -2.16504e-14 0)
(5.42424 3.19022e-14 0)
(5.42424 9.33495e-16 0)
(5.42424 -2.98818e-14 0)
(5.42424 -2.81549e-14 0)
(5.42424 -1.39724e-14 0)
(5.42424 2.48443e-14 0)
(5.42424 1.08209e-13 0)
(5.42424 1.38141e-13 0)
(5.42424 1.07032e-13 0)
(5.42424 3.06386e-15 0)
(5.42424 -5.66765e-15 0)
(5.42424 -1.58927e-14 0)
(5.42424 -3.23423e-14 0)
(5.42424 -4.57379e-14 0)
(5.42424 -5.41794e-14 0)
(5.42424 -6.92653e-14 0)
(5.42424 -6.41544e-14 0)
(5.42424 -1.44305e-13 0)
(5.42424 -1.7152e-13 0)
(5.42424 -2.06466e-13 0)
(5.42424 -1.57707e-13 0)
(5.42424 -1.15543e-13 0)
(5.42424 -9.30361e-14 0)
(5.42424 -2.57578e-14 0)
(5.42424 -5.801e-15 0)
(5.42424 4.36575e-14 0)
(5.42424 -1.68929e-14 0)
(5.42424 -3.27357e-14 0)
(5.42424 -2.7148e-14 0)
(5.42424 3.20055e-16 0)
(5.42424 6.69116e-15 0)
(5.42424 -1.38024e-15 0)
(5.42424 9.635e-15 0)
(5.42424 4.26374e-14 0)
(5.42424 2.25339e-14 0)
(5.42424 5.12422e-15 0)
(5.42424 1.28022e-15 0)
(5.42424 4.72415e-15 0)
(5.42424 1.80498e-14 0)
(5.42424 4.90785e-14 0)
(5.42424 4.59179e-14 0)
(5.42424 -5.64964e-14 0)
(5.42424 -1.06982e-13 0)
(5.42424 -1.47435e-13 0)
(5.42424 -8.39278e-14 0)
(5.42424 2.11136e-14 0)
(5.42424 9.71834e-15 0)
(5.42424 4.27074e-15 0)
(5.42424 3.2093e-14 0)
(5.42424 4.24073e-15 0)
(5.42424 7.46796e-15 0)
(5.42424 -2.99052e-15 0)
(5.42424 -3.53394e-15 0)
(5.42424 3.52794e-14 0)
(5.42424 6.7825e-14 0)
(5.42424 4.08271e-14 0)
(5.42424 8.28143e-15 0)
(5.42424 -2.5101e-14 0)
(5.42424 -2.02902e-14 0)
(5.42424 3.17255e-14 0)
(5.42424 2.53577e-14 0)
(5.42424 3.84333e-14 0)
(5.42424 1.01741e-13 0)
(5.42424 1.31213e-13 0)
(5.42424 5.38793e-14 0)
(5.42424 1.94e-14 0)
(5.42424 2.53377e-16 0)
(5.42424 -5.38626e-14 0)
(5.42424 -9.27694e-14 0)
(5.42424 -1.69463e-14 0)
(5.42424 -4.65647e-14 0)
(5.42424 -5.09288e-14 0)
(5.42424 -4.22506e-14 0)
(5.42424 1.1302e-14 0)
(5.42424 4.93685e-14 0)
(5.42424 9.91205e-14 0)
(5.42424 1.63075e-13 0)
(5.42424 1.42735e-13 0)
(5.42424 1.32383e-13 0)
(5.42424 1.44095e-13 0)
(5.42424 6.22241e-14 0)
(5.42424 -8.14141e-14 0)
(5.42424 -9.13491e-14 0)
(5.42424 -1.13956e-13 0)
(5.42424 -1.49859e-13 0)
(5.42424 -1.70276e-13 0)
(5.42424 -1.67172e-13 0)
(5.42424 -1.46339e-13 0)
(5.42424 -1.06694e-13 0)
(5.42424 -1.06685e-16 0)
(5.42424 -3.6673e-15 0)
(5.42424 -2.31307e-14 0)
(5.42424 -2.77115e-14 0)
(5.42424 -1.73597e-14 0)
(5.42424 1.02118e-14 0)
(5.42424 3.50394e-14 0)
(5.42424 6.90719e-14 0)
(5.42424 8.34878e-14 0)
(5.42424 7.77268e-14 0)
(5.42424 7.06522e-14 0)
(5.42424 2.92517e-14 0)
(5.42424 3.03052e-14 0)
(5.42424 2.80815e-14 0)
(5.42424 9.20159e-15 0)
(5.42424 -3.28057e-14 0)
(5.42424 -1.09506e-13 0)
(5.42424 -1.08582e-13 0)
(5.42424 -9.54465e-14 0)
(5.42424 -8.33611e-14 0)
(5.42424 -5.17889e-14 0)
(5.42424 5.86768e-16 0)
(5.42424 2.01568e-14 0)
(5.42424 6.09839e-14 0)
(5.42424 1.04301e-13 0)
(5.42424 6.08705e-14 0)
(5.42424 9.58832e-15 0)
(5.42424 2.25439e-14 0)
(5.42424 6.78417e-14 0)
(5.42424 9.41963e-14 0)
(5.42424 1.08219e-13 0)
(5.42424 6.02271e-14 0)
(5.42424 -5.44794e-14 0)
(5.42424 -5.88702e-14 0)
(5.42424 -4.2724e-14 0)
(5.42424 -1.01334e-13 0)
(5.42424 -1.9036e-13 0)
(5.42424 -1.78701e-13 0)
(5.42424 -1.56804e-13 0)
(5.42424 -1.38985e-13 0)
(5.42424 -6.90453e-15 0)
(5.42424 1.09352e-14 0)
(5.42424 -2.3104e-15 0)
(5.42424 -5.89135e-14 0)
(5.42424 -9.48564e-14 0)
(5.42424 -8.25776e-14 0)
(5.42424 -4.54112e-14 0)
(5.42424 -2.25872e-14 0)
(5.42424 -2.93651e-14 0)
(5.42424 -7.05122e-14 0)
(5.42424 -1.05742e-13 0)
(5.42424 -1.09499e-13 0)
(5.42424 -1.35537e-13 0)
(5.42424 -1.80354e-13 0)
(5.42424 -1.70389e-13 0)
(5.42424 -1.58867e-13 0)
(5.42424 -1.5288e-13 0)
(5.42424 -1.31339e-13 0)
(5.42424 -6.32042e-14 0)
(5.42424 -2.61712e-15 0)
(5.42424 1.66229e-14 0)
(5.42424 2.98218e-14 0)
(5.42424 4.48211e-14 0)
(5.42424 6.83018e-14 0)
(5.42424 1.3738e-13 0)
(5.42424 1.39664e-13 0)
(5.42424 4.0387e-14 0)
(5.42424 4.18739e-14 0)
(5.42424 5.29791e-14 0)
(5.42424 2.13003e-14 0)
(5.42424 1.33723e-14 0)
(5.42424 3.26723e-15 0)
(5.42424 -5.5933e-14 0)
(5.42424 -7.96004e-14 0)
(5.42424 -7.36927e-14 0)
(5.42424 -6.05004e-14 0)
(5.42424 1.11953e-14 0)
(5.42424 -3.2849e-14 0)
(5.42424 -4.20373e-14 0)
(5.42424 -2.25223e-14 0)
(5.42424 2.25372e-15 0)
(5.42424 1.09152e-14 0)
(5.42424 9.17825e-15 0)
(5.42424 2.62679e-14 0)
(5.42424 4.48544e-14 0)
(5.42424 5.3766e-14 0)
(5.42424 4.02336e-14 0)
(5.42424 -6.05438e-15 0)
(5.42424 -5.85101e-14 0)
(5.42424 -6.66682e-14 0)
(5.42424 -6.34443e-14 0)
(5.42424 -7.71767e-14 0)
(5.42424 -7.59565e-14 0)
(5.42424 -7.47862e-14 0)
(5.42424 -7.56331e-14 0)
(5.42424 -9.58065e-14 0)
(5.42424 -5.36126e-14 0)
(5.42424 -5.4256e-14 0)
(5.42424 -5.09688e-14 0)
(5.42424 -3.03019e-14 0)
(5.42424 -1.65195e-14 0)
(5.42424 8.20808e-15 0)
(5.42424 3.78432e-14 0)
(5.42424 2.16604e-14 0)
(5.42424 4.02536e-14 0)
(5.42424 2.80715e-14 0)
(5.42424 7.05789e-15 0)
(5.42424 -3.71331e-14 0)
(5.42424 -4.45144e-14 0)
(5.42424 1.3249e-14 0)
(5.42424 2.4921e-14 0)
(5.42424 -4.73115e-14 0)
(5.42424 -1.32766e-13 0)
(5.42424 -1.87322e-13 0)
(5.42424 -1.72553e-13 0)
(5.42424 -1.25945e-13 0)
(5.42424 -4.20973e-14 0)
(5.42424 -5.30092e-16 0)
(5.42424 -3.2789e-14 0)
(5.42424 -3.63293e-15 0)
(5.42424 -7.00121e-15 0)
(5.42424 -1.43125e-14 0)
(5.42424 1.08052e-14 0)
(5.42424 9.79002e-14 0)
(5.42424 1.15003e-13 0)
(5.42424 9.79969e-14 0)
(5.42424 8.71317e-14 0)
(5.42424 8.38545e-14 0)
(5.42424 4.67947e-14 0)
(5.42424 7.36794e-15 0)
(5.42424 -1.79898e-14 0)
(5.42424 -8.55781e-14 0)
(5.42424 -5.74899e-14 0)
(5.42424 5.31058e-14 0)
(5.42424 7.53997e-14 0)
(5.42424 7.41128e-14 0)
(5.42424 7.14123e-15 0)
(5.42424 -2.58578e-14 0)
(5.42424 -2.18138e-14 0)
(5.42424 -4.15672e-14 0)
(5.42424 -6.41177e-14 0)
(5.42424 -3.32557e-14 0)
(5.42424 1.24755e-14 0)
(5.42424 2.77115e-14 0)
(5.42424 7.26792e-15 0)
(5.42424 5.08755e-15 0)
(5.42424 5.30758e-15 0)
(5.42424 -5.85068e-14 0)
(5.42424 -5.92636e-14 0)
(5.42424 -5.79e-14 0)
(5.42424 -1.22955e-13 0)
(5.42424 -1.49336e-13 0)
(5.42424 -1.31819e-13 0)
(5.42424 -1.17927e-13 0)
(5.42424 -1.29416e-13 0)
(5.42424 -1.50763e-13 0)
(5.42424 -1.5669e-13 0)
(5.42424 -1.19641e-13 0)
(5.42424 -3.51827e-14 0)
(5.42424 7.05473e-14 0)
(5.42424 -5.00753e-15 0)
(5.42424 1.85032e-15 0)
(5.42424 3.94535e-14 0)
(5.42424 6.39244e-14 0)
(5.42424 4.6398e-14 0)
(5.42424 2.06036e-14 0)
(5.42424 1.1602e-14 0)
(5.42424 3.85e-14 0)
(5.42424 7.58264e-14 0)
(5.42424 6.66782e-14 0)
(5.42424 -8.82819e-15 0)
(5.42424 4.79683e-14 0)
(5.42424 7.72867e-14 0)
(5.42424 9.84037e-14 0)
(5.42424 1.16713e-13 0)
(5.42424 1.01271e-13 0)
(5.42424 8.8842e-14 0)
(5.42424 9.85604e-14 0)
(5.42424 9.79536e-14 0)
(5.42424 9.81303e-14 0)
(5.42424 4.84217e-14 0)
(5.42424 -2.66079e-14 0)
(5.42424 -4.72748e-14 0)
(5.42424 -5.32392e-14 0)
(5.42424 -6.78617e-14 0)
(5.42424 -6.66482e-14 0)
(5.42424 -7.19324e-14 0)
(5.42424 -3.13354e-14 0)
(5.42424 -2.55878e-14 0)
(5.42424 -7.62965e-14 0)
(5.42424 -1.78051e-13 0)
(5.42424 -1.63742e-13 0)
(5.42424 -9.93738e-14 0)
(5.42424 -4.69848e-14 0)
(5.42424 -7.31126e-14 0)
(5.42424 -1.55227e-13 0)
(5.42424 -1.7283e-13 0)
(5.42424 -1.85625e-13 0)
(5.42424 -1.23685e-13 0)
(5.42424 -7.17595e-14 0)
(5.42424 1.60594e-14 0)
(5.42424 3.94701e-14 0)
(5.42424 1.88132e-14 0)
(5.42424 2.02568e-14 0)
(5.42424 3.13354e-14 0)
(5.42424 3.37325e-14 0)
(5.42424 2.96084e-14 0)
(5.42424 2.65779e-14 0)
(5.42424 3.85533e-14 0)
(5.42424 5.38826e-14 0)
(5.42424 1.01291e-13 0)
(5.42424 1.50899e-13 0)
(5.42424 1.61348e-13 0)
(5.42424 1.53103e-13 0)
(5.42424 1.14366e-13 0)
(5.42424 1.11883e-13 0)
(5.42424 1.68089e-13 0)
(5.42424 1.75537e-13 0)
(5.42424 9.23393e-14 0)
(5.42424 1.89399e-14 0)
(5.42424 1.89933e-14 0)
(5.42424 8.56815e-15 0)
(5.42424 -8.2981e-15 0)
(5.42424 -9.10591e-14 0)
(5.42424 -1.14977e-13 0)
(5.42424 -1.51119e-13 0)
(5.42424 -4.62647e-14 0)
(5.42424 1.1622e-14 0)
(5.42424 -2.83049e-15 0)
(5.42424 -5.38493e-14 0)
(5.42424 -5.81534e-14 0)
(5.42424 -4.49311e-14 0)
(5.42424 -4.88651e-14 0)
(5.42424 -8.05006e-14 0)
(5.42424 -1.09149e-13 0)
(5.42424 -1.09529e-13 0)
(5.42424 -6.90986e-14 0)
(5.42424 -3.88334e-14 0)
(5.42424 -8.42545e-14 0)
(5.42424 -1.3206e-13 0)
(5.42424 -1.89033e-15 0)
(5.42424 -2.24372e-14 0)
(5.42424 -5.64531e-14 0)
(5.42424 -9.79402e-14 0)
(5.42424 -7.71533e-14 0)
(5.42424 -3.20122e-14 0)
(5.42424 -6.42444e-15 0)
(5.42424 -1.52693e-15 0)
(5.42424 5.14422e-15 0)
(5.42424 9.83837e-15 0)
(5.42424 8.4898e-14 0)
(5.42424 1.42788e-13 0)
(5.42424 1.67556e-13 0)
(5.42424 1.02314e-13 0)
(5.42424 7.61898e-14 0)
(5.42424 9.40829e-14 0)
(5.42424 8.18408e-14 0)
(5.42424 -2.83916e-14 0)
(5.42424 -5.96436e-14 0)
(5.42424 -7.61865e-14 0)
(5.42424 -8.03472e-14 0)
(5.42424 -8.76951e-14 0)
(5.42424 -1.01734e-13 0)
(5.42424 -6.17107e-14 0)
(5.42424 -3.96969e-14 0)
(5.42424 -2.63746e-14 0)
(5.42424 -1.06218e-14 0)
(5.42424 -1.67129e-14 0)
(5.42424 -5.83301e-14 0)
(5.42424 -5.19556e-14 0)
(5.42424 4.41143e-14 0)
(5.42424 8.92687e-14 0)
(5.42424 7.65832e-14 0)
(5.42424 -2.5271e-15 0)
(5.42424 -3.42392e-15 0)
(5.42424 5.15756e-14 0)
(5.42424 6.1694e-14 0)
(5.42424 4.36675e-14 0)
(5.42424 4.51078e-14 0)
(5.42424 7.3793e-14 0)
(5.42424 -2.66379e-15 0)
(5.42424 -2.75714e-15 0)
(5.42424 2.99052e-14 0)
(5.42424 3.17521e-14 0)
(5.42424 6.80784e-15 0)
(5.42424 -3.93201e-14 0)
(5.42424 -5.79967e-14 0)
(5.42424 -1.62961e-14 0)
(5.42424 3.4476e-14 0)
(5.42424 6.27775e-14 0)
(5.42424 5.97203e-14 0)
(5.42424 8.00472e-14 0)
(5.42424 9.53798e-14 0)
(5.42424 7.15824e-14 0)
(5.42424 6.55713e-14 0)
(5.42424 4.86451e-14 0)
(5.42424 3.75398e-14 0)
(5.42424 3.49594e-14 0)
(5.42424 1.46092e-14 0)
(5.42424 -6.46445e-15 0)
(5.42424 -7.58198e-14 0)
(5.42424 -1.69973e-13 0)
(5.42424 -1.85532e-13 0)
(5.42424 -1.31336e-13 0)
(5.42424 -4.40776e-14 0)
(5.42424 9.09424e-14 0)
(5.42424 9.50764e-14 0)
(5.42424 7.32893e-14 0)
(5.42424 4.87251e-14 0)
(5.42424 2.61312e-14 0)
(5.42424 1.77931e-14 0)
(5.42424 2.78281e-14 0)
(5.42424 4.19973e-14 0)
(5.42424 4.8065e-14 0)
(5.42424 1.64028e-15 0)
(5.42424 2.24039e-15 0)
(5.42424 -1.79698e-15 0)
(5.42424 1.25442e-13 0)
(5.42424 2.6985e-13 0)
(5.42424 3.44693e-13 0)
(5.42424 -1.17287e-14 0)
(5.42424 -1.02651e-14 0)
(5.42424 4.55412e-15 0)
(5.42424 3.6493e-14 0)
(5.42424 1.84499e-14 0)
(5.42424 -3.87734e-15 0)
(5.42424 -1.51359e-15 0)
(5.42424 -2.1337e-15 0)
(5.42424 5.43094e-15 0)
(5.42424 1.45892e-14 0)
(5.42424 4.13438e-14 0)
(5.42424 6.49712e-14 0)
(5.42424 6.52779e-14 0)
(5.42424 7.03855e-14 0)
(5.42424 1.99334e-14 0)
(5.42424 -1.44625e-14 0)
(5.42424 -4.34908e-14 0)
(5.42424 3.98936e-14 0)
(5.42424 3.6913e-14 0)
(5.42424 1.78898e-14 0)
(5.42424 2.33374e-15 0)
(5.42424 -2.16504e-14 0)
(5.42424 -1.953e-14 0)
(5.42424 7.9347e-15 0)
(5.42424 9.03489e-16 0)
(5.42424 4.05537e-14 0)
(5.42424 1.46429e-13 0)
(5.42424 1.48136e-13 0)
(5.42424 1.17284e-13 0)
(5.42424 1.48072e-13 0)
(5.42424 8.34011e-14 0)
(5.42424 -7.16657e-14 0)
(5.42424 -4.15238e-14 0)
(5.42424 -2.69246e-14 0)
(5.42424 -4.39309e-14 0)
(5.42424 5.67565e-14 0)
(5.42424 1.28566e-13 0)
(5.42424 1.49936e-13 0)
(5.42424 2.48583e-13 0)
(5.42424 2.60153e-13 0)
(5.42424 -2.22705e-15 0)
(5.42424 -1.76197e-14 0)
(5.42424 -6.1624e-14 0)
(5.42424 -8.43846e-14 0)
(5.42424 -9.8167e-14 0)
(5.42424 -4.86717e-14 0)
(5.42424 -1.50793e-14 0)
(5.42424 -3.14221e-14 0)
(5.42424 -1.26388e-14 0)
(5.42424 -1.29389e-14 0)
(5.42424 2.69413e-14 0)
(5.42424 6.07905e-14 0)
(5.42424 7.08522e-14 0)
(5.42424 -6.3911e-15 0)
(5.42424 -5.59863e-14 0)
(5.42424 -6.71816e-14 0)
(5.42424 -5.9817e-14 0)
(5.42424 -7.14323e-14 0)
(5.42424 -2.75481e-14 0)
(5.42424 2.09103e-14 0)
(5.42424 4.62146e-14 0)
(5.42424 6.7735e-14 0)
(5.42424 7.28926e-14 0)
(5.42424 7.22658e-14 0)
(5.42424 6.21441e-14 0)
(5.42424 3.16421e-14 0)
(5.42424 3.63096e-14 0)
(5.42424 6.04738e-14 0)
(5.42424 6.78417e-14 0)
(5.42424 4.6408e-14 0)
(5.42424 2.9165e-14 0)
(5.42424 9.92505e-15 0)
(5.42424 7.67833e-14 0)
(5.42424 8.17174e-14 0)
(5.42424 5.788e-14 0)
(5.42424 1.1822e-14 0)
(5.42424 -2.97218e-14 0)
(5.42424 -8.02805e-14 0)
(5.42424 -6.61448e-14 0)
(5.42424 -6.19573e-14 0)
(5.42424 9.84837e-15 0)
(5.42424 1.75364e-15 0)
(5.42424 -2.57544e-14 0)
(5.42424 -6.76283e-14 0)
(5.42424 -4.0667e-14 0)
(5.42424 -1.80331e-14 0)
(5.42424 -1.88266e-14 0)
(5.42424 -3.54228e-14 0)
(5.42424 -4.21806e-14 0)
(5.42424 -4.29974e-14 0)
(5.42424 -4.38209e-14 0)
(5.42424 -4.11904e-14 0)
(5.42424 -5.37459e-14 0)
(5.42424 -1.02931e-13 0)
(5.42424 -8.64516e-14 0)
(5.42424 -6.32843e-14 0)
(5.42424 -4.25373e-14 0)
(5.42424 -2.89017e-14 0)
(5.42424 -2.90183e-14 0)
(5.42424 -2.04269e-14 0)
(5.42424 -2.06036e-15 0)
(5.42424 1.80631e-14 0)
(5.42424 2.75314e-14 0)
(5.42424 4.16272e-14 0)
(5.42424 2.8805e-14 0)
(5.42424 -7.67032e-14 0)
(5.42424 -1.7111e-13 0)
(5.42424 -1.49422e-13 0)
(5.42424 -1.22851e-13 0)
(5.42424 -1.27679e-13 0)
(5.42424 -1.14683e-13 0)
(5.42424 6.96787e-14 0)
(5.42424 1.37967e-13 0)
(5.42424 1.29652e-13 0)
(5.42424 1.15313e-13 0)
(5.42424 5.38893e-14 0)
(5.42424 2.41842e-14 0)
(5.42424 3.59996e-14 0)
(5.42424 4.93419e-16 0)
(5.42424 -2.30818e-16 0)
(5.42424 5.5843e-15 0)
(5.42424 -3.31057e-15 0)
(5.42424 4.36075e-15 0)
(5.42424 -6.64115e-15 0)
(5.42424 1.42458e-14 0)
(5.42424 5.34759e-15 0)
(5.42424 -9.67834e-15 0)
(5.42424 -4.33542e-14 0)
(5.42424 -8.98255e-14 0)
(5.42424 -8.66716e-14 0)
(5.42424 -1.11549e-13 0)
(5.42424 -9.60132e-14 0)
(5.42424 -8.73784e-14 0)
(5.42424 -8.84486e-14 0)
(5.42424 -5.1929e-14 0)
(5.42424 -2.17004e-14 0)
(5.42424 -3.96168e-14 0)
(5.42424 -9.59932e-14 0)
(5.42424 -1.3705e-13 0)
(5.42424 -1.40724e-13 0)
(5.42424 -1.01007e-13 0)
(5.42424 1.7263e-14 0)
(5.42424 9.99006e-14 0)
(5.42424 1.11019e-13 0)
(5.42424 9.39862e-14 0)
(5.42424 3.30057e-16 0)
(5.42424 -8.05973e-14 0)
(5.42424 -1.44842e-13 0)
(5.42424 -1.26008e-13 0)
(5.42424 -7.87203e-14 0)
(5.42424 -3.22189e-14 0)
(5.42424 -9.86837e-16 0)
(5.42424 -9.41163e-15 0)
(5.42424 1.81698e-15 0)
(5.42424 2.04469e-14 0)
(5.42424 2.36474e-14 0)
(5.42424 7.56097e-14 0)
(5.42424 7.41295e-14 0)
(5.42424 4.41176e-14 0)
(5.42424 3.62259e-14 0)
(5.42424 -1.40024e-16 0)
(5.42424 -7.52463e-15 0)
(5.42424 9.29494e-15 0)
(5.42424 2.75448e-14 0)
(5.42424 1.57761e-14 0)
(5.42424 2.07369e-14 0)
(5.42424 2.66713e-17 0)
(5.42424 -1.28456e-14 0)
(5.42424 -4.97519e-14 0)
(5.42424 -6.67215e-14 0)
(5.42424 -8.93254e-14 0)
(5.42424 -1.08795e-13 0)
(5.42424 -1.33273e-13 0)
(5.42424 -8.0834e-14 0)
(5.42424 -7.24492e-14 0)
(5.42424 -3.75632e-14 0)
(5.42424 -3.44459e-14 0)
(5.42424 -6.63415e-14 0)
(5.42424 -4.16805e-14 0)
(5.42424 -1.06452e-14 0)
(5.42424 3.79666e-14 0)
(5.42424 8.17908e-14 0)
(5.42424 6.61581e-14 0)
(5.42424 5.71632e-14 0)
(5.42424 5.10922e-14 0)
(5.42424 2.46643e-14 0)
(5.42424 2.78215e-14 0)
(5.42424 1.41991e-14 0)
(5.42424 -1.65595e-14 0)
(5.42424 1.43025e-14 0)
(5.42424 6.89152e-14 0)
(5.42424 4.90751e-15 0)
(5.42424 -4.73182e-14 0)
(5.42424 -4.58746e-14 0)
(5.42424 -2.91717e-15 0)
(5.42424 8.02439e-14 0)
(5.42424 4.61246e-14 0)
(5.42424 -2.5061e-14 0)
(5.42424 -1.00717e-14 0)
(5.42424 3.90865e-14 0)
(5.42424 -5.59763e-15 0)
(5.42424 -5.38093e-15 0)
(5.42424 2.04769e-14 0)
(5.42424 5.30758e-14 0)
(5.42424 2.95984e-14 0)
(5.42424 -9.00155e-16 0)
(5.42424 -2.73581e-14 0)
(5.42424 -1.54327e-14 0)
(5.42424 3.58395e-15 0)
(5.42424 -1.59661e-14 0)
(5.42424 -8.11473e-15 0)
(5.42424 -3.00819e-14 0)
(5.42424 -8.37945e-14 0)
(5.42424 -1.3433e-13 0)
(5.42424 -1.34243e-13 0)
(5.42424 -1.32199e-13 0)
(5.42424 -1.17147e-13 0)
(5.42424 -6.13406e-14 0)
(5.42424 3.88734e-14 0)
(5.42424 8.90654e-14 0)
(5.42424 6.9772e-14 0)
(5.42424 1.95734e-14 0)
(5.42424 4.21739e-15 0)
(5.42424 -1.95434e-14 0)
(5.42424 2.26506e-14 0)
(5.42424 2.04235e-14 0)
(5.42424 6.52446e-14 0)
(5.42424 1.08582e-13 0)
(5.42424 -2.57878e-14 0)
(5.42424 -6.27408e-14 0)
(5.42424 -8.27676e-14 0)
(5.42424 -6.79151e-14 0)
(5.42424 -6.52879e-14 0)
(5.42424 -2.15037e-14 0)
(5.42424 -1.45358e-14 0)
(5.42424 6.44578e-14 0)
(5.42424 1.30116e-13 0)
(5.42424 1.31849e-13 0)
(5.42424 1.32176e-13 0)
(5.42424 1.15718e-13 0)
(5.42424 4.54745e-15 0)
(5.42424 1.83798e-14 0)
(5.42424 2.08436e-14 0)
(5.42424 2.15371e-15 0)
(5.42424 1.65129e-14 0)
(5.42424 5.4176e-15 0)
(5.42424 -8.53814e-15 0)
(5.42424 -7.66466e-15 0)
(5.42424 2.5141e-14 0)
(5.42424 6.13306e-14 0)
(5.42424 8.17541e-14 0)
(5.42424 8.71751e-14 0)
(5.42424 9.52264e-14 0)
(5.42424 7.19458e-15 0)
(5.42424 -2.95918e-14 0)
(5.42424 -1.62601e-13 0)
(5.42424 -2.00648e-13 0)
(5.42424 -1.68642e-13 0)
(5.42424 -6.48079e-14 0)
(5.42424 1.1482e-14 0)
(5.42424 8.26009e-14 0)
(5.42424 7.21891e-14 0)
(5.42424 6.34576e-14 0)
(5.42424 4.8485e-14 0)
(5.42424 4.61946e-14 0)
(5.42424 8.05739e-14 0)
(5.42424 1.5293e-13 0)
(5.42424 2.01782e-13 0)
(5.42424 1.24655e-13 0)
(5.42424 -5.64731e-14 0)
(5.42424 -1.22701e-13 0)
(5.42424 -1.25112e-13 0)
(5.42424 -3.94268e-14 0)
(5.42424 8.52314e-14 0)
(5.42424 1.46472e-13 0)
(5.42424 1.92623e-13 0)
(5.42424 2.3404e-13 0)
(5.42424 2.18974e-13 0)
(5.42424 2.27553e-13 0)
(5.42424 1.76529e-13 0)
(5.42424 1.82798e-14 0)
(5.42424 3.43226e-14 0)
(5.42424 1.10186e-14 0)
(5.42424 -2.54711e-15 0)
(5.42424 9.52498e-15 0)
(5.42424 -2.67413e-14 0)
(5.42424 -6.59747e-14 0)
(5.42424 -3.37025e-14 0)
(5.42424 3.0672e-15 0)
(5.42424 8.45479e-15 0)
(5.42424 -9.02156e-15 0)
(5.42424 -1.58027e-15 0)
(5.42424 7.58964e-14 0)
(5.42424 1.07772e-13 0)
(5.42424 3.83133e-14 0)
(5.42424 -1.26555e-14 0)
(5.42424 -1.19254e-14 0)
(5.42424 -3.90234e-14 0)
(5.42424 -6.68782e-15 0)
(5.42424 2.7308e-14 0)
(5.42424 1.22701e-13 0)
(5.42424 1.88886e-13 0)
(5.42424 8.13707e-14 0)
(5.42424 3.2789e-14 0)
(5.42424 3.50827e-14 0)
(5.42424 6.78184e-14 0)
(5.42424 6.33943e-14 0)
(5.42424 1.67029e-14 0)
(5.42424 -2.55411e-14 0)
(5.42424 -2.46509e-14 0)
(5.42424 -3.91534e-14 0)
(5.42424 -1.85699e-14 0)
(5.42424 -1.35423e-14 0)
(5.42424 2.28506e-14 0)
(5.42424 8.64516e-14 0)
(5.42424 1.42241e-13 0)
(5.42424 1.37467e-13 0)
(5.42424 1.16323e-13 0)
(5.42424 6.13739e-14 0)
(5.42424 4.07282e-14 0)
(5.42424 -6.12772e-15 0)
(5.42424 1.7103e-15 0)
(5.42424 2.18404e-14 0)
(5.42424 4.8365e-14 0)
(5.42424 2.32907e-14 0)
(5.42424 -1.11453e-14 0)
(5.42424 -7.66732e-14 0)
(5.42424 -8.27176e-14 0)
(5.42424 -8.64083e-14 0)
(5.42424 -8.45646e-14 0)
(5.42424 -3.23956e-14 0)
(5.42424 -1.00617e-14 0)
(5.42424 2.66479e-14 0)
(5.42424 1.31016e-13 0)
(5.42424 1.73443e-13 0)
(5.42424 1.66432e-13 0)
(5.42424 1.23975e-13 0)
(5.42424 8.92954e-14 0)
(5.42424 1.26839e-13 0)
(5.42424 1.48556e-13 0)
(5.42424 1.56734e-13 0)
(5.42424 1.81531e-14 0)
(5.42424 -3.92068e-14 0)
(5.42424 -6.47512e-14 0)
(5.42424 -5.53596e-14 0)
(5.42424 -5.46594e-14 0)
(5.42424 -9.45297e-14 0)
(5.42424 -1.06772e-13 0)
(5.42424 -1.39657e-14 0)
(5.42424 1.46959e-14 0)
(5.42424 1.87099e-14 0)
(5.42424 -2.62779e-14 0)
(5.42424 -3.04019e-14 0)
(5.42424 -9.39496e-15 0)
(5.42424 -1.13286e-14 0)
(5.42424 -6.04804e-14 0)
(5.42424 -3.83433e-14 0)
(5.42424 3.00652e-14 0)
(5.42424 -8.84153e-15 0)
(5.42424 -9.71738e-14 0)
(5.42424 -3.10554e-14 0)
(5.42424 -3.73998e-14 0)
(5.42424 -5.83934e-14 0)
(5.42424 -6.25775e-14 0)
(5.42424 -4.93419e-14 0)
(5.42424 1.30556e-14 0)
(5.42424 8.9052e-14 0)
(5.42424 7.35894e-14 0)
(5.42424 4.13405e-14 0)
(5.42424 3.13087e-14 0)
(5.42424 7.13323e-14 0)
(5.42424 7.71767e-14 0)
(5.42424 8.6605e-14 0)
(5.42424 1.09999e-13 0)
(5.42424 1.33693e-13 0)
(5.42424 1.68382e-13 0)
(5.42424 1.67859e-13 0)
(5.42424 1.46935e-13 0)
(5.42424 1.57307e-13 0)
(5.42424 1.9434e-13 0)
(5.42424 8.51247e-14 0)
(5.42424 1.28389e-14 0)
(5.42424 -3.06053e-14 0)
(5.42424 -2.81849e-14 0)
(5.42424 -3.40192e-14 0)
(5.42424 -7.3346e-17 0)
(5.42424 4.50278e-14 0)
(5.42424 2.51243e-14 0)
(5.42424 -6.89886e-14 0)
(5.42424 -9.86237e-14 0)
(5.42424 -7.18257e-14 0)
(5.42424 -7.64365e-14 0)
(5.42424 -9.18025e-14 0)
(5.42424 -1.34773e-13 0)
(5.42424 -1.5731e-13 0)
(5.42424 -2.00598e-13 0)
(5.42424 -2.54574e-13 0)
(5.42424 -2.76838e-13 0)
(5.42424 -2.02705e-13 0)
(5.42424 -1.84022e-13 0)
(5.42424 1.08019e-14 0)
(5.42424 -7.05455e-15 0)
(5.42424 -2.8805e-15 0)
(5.42424 -2.85516e-14 0)
(5.42424 -1.69263e-14 0)
(5.42424 -1.03351e-15 0)
(5.42424 9.14591e-14 0)
(5.42424 1.41931e-13 0)
(5.42424 1.51439e-13 0)
(5.42424 1.14603e-13 0)
(5.42424 6.51779e-14 0)
(5.42424 4.22306e-14 0)
(5.42424 6.94453e-15 0)
(5.42424 1.60894e-14 0)
(5.42424 4.28307e-14 0)
(5.42424 1.39221e-13 0)
(5.42424 2.16244e-13 0)
(5.42424 2.56911e-13 0)
(5.42424 2.23449e-13 0)
(5.42424 1.35283e-13 0)
(5.42424 6.33409e-14 0)
(5.42424 9.22393e-14 0)
(5.42424 1.14e-13 0)
(5.42424 9.38029e-14 0)
(5.42424 9.56832e-14 0)
(5.42424 1.1817e-13 0)
(5.42424 1.7247e-13 0)
(5.42424 3.66597e-14 0)
(5.42424 -7.89036e-14 0)
(5.42424 -1.3793e-13 0)
(5.42424 -1.56104e-13 0)
(5.42424 -1.1315e-13 0)
(5.42424 -5.95036e-14 0)
(5.42424 -9.17158e-14 0)
(5.42424 -1.69363e-13 0)
(5.42424 -1.7446e-13 0)
(5.42424 -2.36541e-13 0)
(5.42424 -4.2692e-13 0)
(5.42424 -4.68424e-13 0)
(5.42424 -3.54321e-13 0)
(5.42424 1.80431e-14 0)
(5.42424 4.56979e-14 0)
(5.42424 8.4928e-14 0)
(5.42424 9.36162e-14 0)
(5.42424 8.71084e-14 0)
(5.42424 5.6103e-14 0)
(5.42424 4.13138e-14 0)
(5.42424 7.41128e-14 0)
(5.42424 9.77469e-14 0)
(5.42424 1.01918e-13 0)
(5.42424 -1.35357e-15 0)
(5.42424 -9.10857e-14 0)
(5.42424 -1.18594e-13 0)
(5.42424 -8.97188e-14 0)
(5.42424 -1.26689e-15 0)
(5.42424 1.69329e-14 0)
(5.42424 6.5388e-14 0)
(5.42424 1.05815e-13 0)
(5.42424 1.20978e-13 0)
(5.42424 9.31928e-14 0)
(5.42424 7.00921e-14 0)
(5.42424 4.31608e-14 0)
(5.42424 9.53931e-14 0)
(5.42424 1.31619e-13 0)
(5.42424 1.21934e-13 0)
(5.42424 1.07519e-13 0)
(5.42424 7.88736e-14 0)
(5.42424 -1.03801e-13 0)
(5.42424 -1.27755e-13 0)
(5.42424 -9.54665e-14 0)
(5.42424 -1.04898e-13 0)
(5.42424 -8.86253e-14 0)
(5.42424 -1.11286e-14 0)
(5.42424 1.1782e-14 0)
(5.42424 -2.81382e-15 0)
(5.42424 -4.84584e-14 0)
(5.42424 -7.62965e-14 0)
(5.42424 -1.23268e-13 0)
(5.42424 -2.28053e-13 0)
(5.42424 -2.599e-13 0)
(5.42424 -8.02472e-15 0)
(5.42424 5.17089e-15 0)
(5.42424 4.02636e-14 0)
(5.42424 5.72566e-14 0)
(5.42424 4.4111e-14 0)
(5.42424 4.81983e-14 0)
(5.42424 6.32609e-14 0)
(5.42424 6.14806e-14 0)
(5.42424 2.03368e-16 0)
(5.42424 -6.52646e-14 0)
(5.42424 -1.23831e-13 0)
(5.42424 -1.19291e-13 0)
(5.42424 -9.04156e-14 0)
(5.42424 -1.12559e-13 0)
(5.42424 -1.65245e-13 0)
(5.42424 -2.03739e-13 0)
(5.42424 -1.7366e-13 0)
(5.42424 -1.26295e-13 0)
(5.42424 -5.75666e-14 0)
(5.42424 4.51078e-15 0)
(5.42424 -1.80031e-16 0)
(5.42424 -8.25809e-15 0)
(5.42424 9.14491e-15 0)
(5.42424 3.84166e-14 0)
(5.42424 2.07469e-14 0)
(5.42424 1.17687e-15 0)
(5.42424 -3.96835e-14 0)
(5.42424 -1.02444e-13 0)
(5.42424 -4.29407e-14 0)
(5.42424 -5.64497e-14 0)
(5.42424 -6.98787e-14 0)
(5.42424 -1.7113e-14 0)
(5.42424 -1.45792e-14 0)
(5.42424 -5.16989e-14 0)
(5.42424 -2.3404e-14 0)
(5.42424 -9.78836e-15 0)
(5.42424 -2.40842e-14 0)
(5.42424 2.54944e-14 0)
(5.42424 5.41594e-14 0)
(5.42424 1.07276e-13 0)
(5.42424 -2.06436e-14 0)
(5.42424 -2.70513e-14 0)
(5.42424 -4.03236e-14 0)
(5.42424 -4.91452e-14 0)
(5.42424 -4.6228e-14 0)
(5.42424 -1.11753e-14 0)
(5.42424 1.56627e-14 0)
(5.42424 -5.93903e-14 0)
(5.42424 -1.33113e-13 0)
(5.42424 -1.96767e-13 0)
(5.42424 -2.17494e-13 0)
(5.42424 -1.26285e-13 0)
(5.42424 -5.66765e-14 0)
(5.42424 -4.08204e-14 0)
(5.42424 -3.93135e-14 0)
(5.42424 -4.38642e-14 0)
(5.42424 -9.91138e-14 0)
(5.42424 -8.8862e-14 0)
(5.42424 -3.44726e-14 0)
(5.42424 -1.06185e-13 0)
(5.42424 -1.44688e-13 0)
(5.42424 -1.06325e-13 0)
(5.42424 -8.57748e-14 0)
(5.42424 -8.1044e-14 0)
(5.42424 -4.75082e-14 0)
(5.42424 -8.21775e-14 0)
(5.42424 -9.33528e-14 0)
(5.42424 -5.53229e-14 0)
(5.42424 -2.96485e-14 0)
(5.42424 -2.66646e-14 0)
(5.42424 1.72363e-15 0)
(5.42424 2.1057e-14 0)
(5.42424 -3.52294e-14 0)
(5.42424 -1.51406e-13 0)
(5.42424 -1.63098e-13 0)
(5.42424 -1.31456e-13 0)
(5.42424 -1.07015e-13 0)
(5.42424 -1.25832e-13 0)
(5.42424 -1.09906e-13 0)
(5.42424 -3.57544e-14 0)
(5.42424 6.85452e-15 0)
(5.42424 1.08752e-14 0)
(5.42424 -3.01252e-14 0)
(5.42424 -5.798e-14 0)
(5.42424 -5.19156e-14 0)
(5.42424 -2.76548e-14 0)
(5.42424 -6.78017e-14 0)
(5.42424 -8.39845e-14 0)
(5.42424 -7.9347e-14 0)
(5.42424 -2.4951e-14 0)
(5.42424 -1.913e-14 0)
(5.42424 -1.61428e-14 0)
(5.42424 -1.07652e-14 0)
(5.42424 7.23458e-15 0)
(5.42424 4.26607e-14 0)
(5.42424 5.95503e-14 0)
(5.42424 3.2829e-14 0)
(5.42424 -2.43409e-14 0)
(5.42424 -7.77334e-14 0)
(5.42424 -8.45279e-14 0)
(5.42424 -1.18357e-13 0)
(5.42424 -1.69333e-13 0)
(5.42424 -2.18471e-13 0)
(5.42424 -1.93743e-13 0)
(5.42424 -1.37957e-13 0)
(5.42424 -1.14006e-13 0)
(5.42424 -9.85637e-14 0)
(5.42424 -6.98487e-14 0)
(5.42424 -7.00888e-14 0)
(5.42424 -5.77766e-14 0)
(5.42424 -4.46577e-14 0)
(5.42424 -7.95471e-14 0)
(5.42424 -1.18237e-13 0)
(5.42424 -1.3371e-13 0)
(5.42424 -1.32503e-13 0)
(5.42424 -1.19227e-13 0)
(5.42424 -1.86389e-13 0)
(5.42424 -2.74307e-13 0)
(5.42424 -2.61365e-13 0)
(5.42424 -2.03282e-13 0)
(5.42424 3.62396e-15 0)
(5.42424 9.60833e-15 0)
(5.42424 3.13821e-14 0)
(5.42424 -9.33495e-17 0)
(5.42424 -1.29589e-14 0)
(5.42424 -3.72764e-14 0)
(5.42424 -5.53562e-14 0)
(5.42424 -3.37025e-14 0)
(5.42424 2.76914e-14 0)
(5.42424 6.52113e-14 0)
(5.42424 9.79369e-14 0)
(5.42424 9.52298e-14 0)
(5.42424 6.73883e-14 0)
(5.42424 3.87667e-14 0)
(5.42424 2.37374e-15 0)
(5.42424 -6.13806e-14 0)
(5.42424 -6.32376e-14 0)
(5.42424 -1.11713e-13 0)
(5.42424 -7.92737e-14 0)
(5.42424 -5.98103e-14 0)
(5.42424 -5.71099e-14 0)
(5.42424 -7.77401e-14 0)
(5.42424 -1.45945e-13 0)
(5.42424 -2.39035e-13 0)
(5.42424 -2.62912e-13 0)
(5.42424 -1.91423e-13 0)
(5.42424 -1.48296e-13 0)
(5.42424 -8.62882e-14 0)
(5.42424 -2.00601e-14 0)
(5.42424 -2.47776e-14 0)