/*--------------------------------*- C++ -*----------------------------------*\
| =========                 |                                                 |
| \\      /  F ield         | OpenFOAM: The Open Source CFD Toolbox           |
|  \\    /   O peration     | Version:  2206                                  |
|   \\  /    A nd           | Website:  www.openfoam.com                      |
|    \\/     M anipulation  |                                                 |
\*---------------------------------------------------------------------------*/
FoamFile
{
    version     2.0;
    format      ascii;
    arch        "LSB;label=32;scalar=64";
    class       volVectorField;
    location    "0.06";
    object      U;
}
// * * * * * * * * * * * * * * * * * * * * * * * * * * * * * * * * * * * * * //

dimensions      [0 1 -1 0 0 0 0];

internalField   nonuniform List<vector> 
4800
(
(3.48485 -1.30823e-14 0)
(3.48485 -8.26076e-14 0)
(3.48485 -8.94354e-14 0)
(3.48485 -6.56847e-14 0)
(3.48485 -1.67962e-14 0)
(3.48485 -1.43358e-15 0)
(3.48485 -8.08473e-15 0)
(3.48485 2.5251e-14 0)
(3.48485 2.6808e-14 0)
(3.48485 2.00501e-14 0)
(3.48485 -9.51498e-15 0)
(3.48485 -3.06286e-14 0)
(3.48485 -6.16106e-14 0)
(3.48485 -8.08006e-14 0)
(3.48485 -7.67433e-14 0)
(3.48485 -1.01514e-13 0)
(3.48485 -8.91987e-14 0)
(3.48485 -8.57781e-14 0)
(3.48485 -3.37925e-14 0)
(3.48485 -3.35391e-15 0)
(3.48485 -1.69229e-14 0)
(3.48485 9.58832e-15 0)
(3.48485 2.13704e-14 0)
(3.48485 4.95419e-14 0)
(3.48485 -8.82819e-15 0)
(3.48485 -3.93135e-14 0)
(3.48485 1.63028e-15 0)
(3.48485 1.40058e-14 0)
(3.48485 4.75482e-14 0)
(3.48485 7.11089e-14 0)
(3.48485 5.69865e-14 0)
(3.48485 5.93803e-14 0)
(3.48485 5.08655e-14 0)
(3.48485 7.09189e-14 0)
(3.48485 6.5908e-14 0)
(3.48485 2.83916e-14 0)
(3.48485 -2.84016e-14 0)
(3.48485 1.35023e-15 0)
(3.48485 3.51394e-15 0)
(3.48485 -2.33907e-14 0)
(3.48485 -3.78765e-14 0)
(3.48485 -6.02637e-14 0)
(3.48485 -7.52663e-14 0)
(3.48485 -4.97619e-14 0)
(3.48485 -6.66915e-14 0)
(3.48485 -7.80868e-14 0)
(3.48485 -8.42012e-14 0)
(3.48485 -5.86635e-14 0)
(3.48485 -4.35108e-14 0)
(3.48485 -5.56596e-14 0)
(3.48485 -3.89334e-14 0)
(3.48485 -9.655e-15 0)
(3.48485 6.66782e-18 0)
(3.48485 -7.14823e-14 0)
(3.48485 -1.05385e-13 0)
(3.48485 -1.34083e-13 0)
(3.48485 -2.35454e-13 0)
(3.48485 -2.115e-13 0)
(3.48485 -1.11999e-13 0)
(3.48485 -8.33144e-15 0)
(3.48485 -9.47497e-15 0)
(3.48485 -2.89217e-14 0)
(3.48485 2.1097e-14 0)
(3.48485 5.98003e-14 0)
(3.48485 -3.26656e-14 0)
(3.48485 -7.91203e-14 0)
(3.48485 -2.17371e-15 0)
(3.48485 3.40859e-14 0)
(3.48485 1.57307e-13 0)
(3.48485 1.27262e-13 0)
(3.48485 -2.39741e-14 0)
(3.48485 -2.96118e-14 0)
(3.48485 -5.05721e-14 0)
(3.48485 5.88768e-14 0)
(3.48485 1.32496e-13 0)
(3.48485 1.18224e-13 0)
(3.48485 6.07905e-14 0)
(3.48485 -1.27989e-14 0)
(3.48485 -4.61413e-14 0)
(3.48485 -6.79929e-14 0)
(3.48485 1.65395e-14 0)
(3.48485 7.86969e-14 0)
(3.48485 5.76966e-14 0)
(3.48485 5.06821e-14 0)
(3.48485 -9.80503e-15 0)
(3.48485 -2.51043e-14 0)
(3.48485 -1.78798e-14 0)
(3.48485 -2.43042e-15 0)
(3.48485 4.64147e-14 0)
(3.48485 1.21288e-14 0)
(3.48485 4.79049e-14 0)
(3.48485 1.39191e-13 0)
(3.48485 1.1496e-13 0)
(3.48485 2.43542e-14 0)
(3.48485 2.30206e-14 0)
(3.48485 2.47543e-14 0)
(3.48485 -6.80518e-14 0)
(3.48485 -1.59644e-13 0)
(3.48485 -1.59721e-13 0)
(3.48485 -1.34613e-13 0)
(3.48485 -1.16784e-13 0)
(3.48485 -1.30516e-13 0)
(3.48485 -7.53297e-14 0)
(3.48485 -9.2936e-14 0)
(3.48485 -3.81132e-14 0)
(3.48485 -3.10887e-14 0)
(3.48485 -7.23125e-15 0)
(3.48485 -2.85816e-14 0)
(3.48485 -2.33807e-14 0)
(3.48485 -5.03154e-14 0)
(3.48485 -8.70184e-14 0)
(3.48485 -7.39728e-14 0)
(3.48485 -7.3246e-14 0)
(3.48485 -2.95918e-14 0)
(3.48485 3.10487e-14 0)
(3.48485 4.28174e-14 0)
(3.48485 5.52662e-14 0)
(3.48485 1.52693e-15 0)
(3.48485 -5.70032e-14 0)
(3.48485 -8.46694e-14 0)
(3.48485 1.44525e-14 0)
(3.48485 -1.63028e-15 0)
(3.48485 3.14054e-15 0)
(3.48485 3.4806e-15 0)
(3.48485 2.84382e-14 0)
(3.48485 7.38461e-14 0)
(3.48485 1.16824e-13 0)
(3.48485 2.11283e-13 0)
(3.48485 1.80605e-13 0)
(3.48485 1.30242e-13 0)
(3.48485 1.1379e-13 0)
(3.48485 7.74167e-14 0)
(3.48485 8.20508e-14 0)
(3.48485 8.4958e-14 0)
(3.48485 1.49939e-13 0)
(3.48485 1.35257e-13 0)
(3.48485 1.19907e-13 0)
(3.48485 3.79366e-14 0)
(3.48485 2.30373e-14 0)
(3.48485 -1.26839e-13 0)
(3.48485 -2.16517e-13 0)
(3.48485 -1.64472e-13 0)
(3.48485 -1.16557e-13 0)
(3.48485 -1.10702e-13 0)
(3.48485 -3.00819e-14 0)
(3.48485 1.90033e-15 0)
(3.48485 3.63729e-14 0)
(3.48485 1.3318e-13 0)
(3.48485 1.19641e-13 0)
(3.48485 5.71099e-14 0)
(3.48485 7.31626e-14 0)
(3.48485 8.48847e-14 0)
(3.48485 1.39264e-13 0)
(3.48485 3.0882e-14 0)
(3.48485 -1.03668e-13 0)
(3.48485 -8.90354e-14 0)
(3.48485 -6.18907e-14 0)
(3.48485 -1.38324e-14 0)
(3.48485 2.67246e-14 0)
(3.48485 2.91627e-14 0)
(3.48485 -1.54893e-14 0)
(3.48485 -1.38724e-14 0)
(3.48485 1.12519e-14 0)
(3.48485 -1.18187e-14 0)
(3.48485 1.15687e-14 0)
(3.48485 9.659e-14 0)
(3.48485 1.00134e-13 0)
(3.48485 7.15457e-14 0)
(3.48485 2.80715e-14 0)
(3.48485 1.45458e-14 0)
(3.48485 -1.21321e-14 0)
(3.48485 1.19054e-14 0)
(3.48485 1.19927e-13 0)
(3.48485 1.7371e-13 0)
(3.48485 1.11976e-13 0)
(3.48485 6.07338e-14 0)
(3.48485 8.44279e-14 0)
(3.48485 9.36428e-14 0)
(3.48485 7.59798e-14 0)
(3.48485 8.07806e-15 0)
(3.48485 -3.31124e-14 0)
(3.48485 -3.34558e-14 0)
(3.48485 -2.95918e-14 0)
(3.48485 -2.25072e-14 0)
(3.48485 3.06353e-14 0)
(3.48485 5.48628e-14 0)
(3.48485 1.09606e-13 0)
(3.48485 1.70093e-13 0)
(3.48485 1.34437e-13 0)
(3.48485 1.25738e-13 0)
(3.48485 5.27024e-14 0)
(3.48485 1.56527e-14 0)
(3.48485 4.06103e-14 0)
(3.48485 2.77381e-15 0)
(3.48485 -2.05369e-14 0)
(3.48485 -5.30992e-14 0)
(3.48485 -1.19784e-13 0)
(3.48485 -1.47919e-13 0)
(3.48485 -7.36294e-14 0)
(3.48485 -1.90855e-14 0)
(3.48485 -3.90067e-15 0)
(3.48485 -1.41358e-15 0)
(3.48485 5.94403e-14 0)
(3.48485 9.88804e-14 0)
(3.48485 1.23865e-13 0)
(3.48485 1.1642e-13 0)
(3.48485 3.77298e-14 0)
(3.48485 6.13773e-15 0)
(3.48485 8.84453e-14 0)
(3.48485 1.07199e-13 0)
(3.48485 -4.53412e-16 0)
(3.48485 -4.81883e-14 0)
(3.48485 -2.7068e-14 0)
(3.48485 3.0662e-14 0)
(3.48485 -1.96967e-14 0)
(3.48485 -3.63329e-14 0)
(3.48485 1.50859e-14 0)
(3.48485 1.94767e-14 0)
(3.48485 -2.69146e-14 0)
(3.48485 -1.64795e-14 0)
(3.48485 1.03194e-13 0)
(3.48485 1.20501e-13 0)
(3.48485 8.74618e-14 0)
(3.48485 8.60282e-14 0)
(3.48485 8.6655e-14 0)
(3.48485 1.42558e-13 0)
(3.48485 1.18774e-13 0)
(3.48485 4.48811e-14 0)
(3.48485 4.6458e-14 0)
(3.48485 9.96372e-14 0)
(3.48485 3.73298e-14 0)
(3.48485 -4.16739e-14 0)
(3.48485 -1.03908e-13 0)
(3.48485 -8.93254e-14 0)
(3.48485 -1.24121e-14 0)
(3.48485 -7.47896e-14 0)
(3.48485 -1.04075e-13 0)
(3.48485 -7.39628e-14 0)
(3.48485 -5.67265e-14 0)
(3.48485 -2.87918e-14 0)
(3.48485 -1.08385e-14 0)
(3.48485 -4.31741e-15 0)
(3.48485 -1.48592e-14 0)
(3.48485 4.50544e-14 0)
(3.48485 3.56828e-14 0)
(3.48485 -3.71531e-14 0)
(3.48485 -6.50146e-14 0)
(3.48485 -4.65047e-14 0)
(3.48485 -1.50026e-14 0)
(3.48485 -4.8305e-14 0)
(3.48485 -8.64816e-14 0)
(3.48485 -1.87716e-13 0)
(3.48485 -2.11863e-13 0)
(3.48485 -1.26805e-13 0)
(3.48485 -1.06108e-13 0)
(3.48485 -8.6645e-14 0)
(3.48485 -4.71748e-15 0)
(3.48485 8.56448e-14 0)
(3.48485 9.31894e-14 0)
(3.48485 8.8682e-14 0)
(3.48485 1.3734e-13 0)
(3.48485 1.1761e-13 0)
(3.48485 7.30793e-14 0)
(3.48485 1.19201e-13 0)
(3.48485 1.60944e-13 0)
(3.48485 1.84852e-13 0)
(3.48485 1.31319e-13 0)
(3.48485 3.26023e-14 0)
(3.48485 7.84469e-15 0)
(3.48485 -4.36942e-14 0)
(3.48485 -6.00604e-14 0)
(3.48485 -8.85953e-14 0)
(3.48485 -1.29372e-13 0)
(3.48485 -3.39925e-14 0)
(3.48485 -1.92967e-14 0)
(3.48485 2.4851e-14 0)
(3.48485 4.7975e-14 0)
(3.48485 -6.18774e-15 0)
(3.48485 -7.80802e-15 0)
(3.48485 -1.94126e-14 0)
(3.48485 2.01201e-14 0)
(3.48485 4.50511e-14 0)
(3.48485 7.98805e-15 0)
(3.48485 -9.24926e-14 0)
(3.48485 -1.26879e-13 0)
(3.48485 -1.54897e-13 0)
(3.48485 -1.29106e-13 0)
(3.48485 -1.17914e-13 0)
(3.48485 -1.38e-13 0)
(3.48485 -1.86085e-13 0)
(3.48485 -1.81508e-13 0)
(3.48485 -1.19347e-13 0)
(3.48485 -1.30366e-13 0)
(3.48485 -7.06389e-14 0)
(3.48485 -3.09687e-14 0)
(3.48485 1.46325e-14 0)
(3.48485 2.9105e-15 0)
(3.48485 6.08972e-14 0)
(3.48485 1.34163e-13 0)
(3.48485 1.49149e-13 0)
(3.48485 6.50479e-14 0)
(3.48485 -7.02488e-14 0)
(3.48485 -3.19755e-14 0)
(3.48485 -3.0672e-16 0)
(3.48485 5.88068e-14 0)
(3.48485 3.54261e-14 0)
(3.48485 4.21173e-14 0)
(3.48485 -2.54011e-14 0)
(3.48485 -6.55947e-14 0)
(3.48485 -1.06355e-13 0)
(3.48485 -1.17417e-13 0)
(3.48485 -7.14023e-14 0)
(3.48485 -2.92784e-14 0)
(3.48485 -9.06156e-15 0)
(3.48485 1.44525e-14 0)
(3.48485 -7.58464e-15 0)
(3.48485 -1.29322e-14 0)
(3.48485 -1.10166e-13 0)
(3.48485 -1.63552e-13 0)
(3.48485 -1.77175e-13 0)
(3.48485 1.5536e-15 0)
(3.48485 -3.15621e-14 0)
(3.48485 -6.74483e-14 0)
(3.48485 -1.31453e-13 0)
(3.48485 -1.00027e-13 0)
(3.48485 -3.63429e-14 0)
(3.48485 -1.65095e-14 0)
(3.48485 -3.52361e-14 0)
(3.48485 -1.18994e-13 0)
(3.48485 -1.06235e-13 0)
(3.48485 -7.32693e-14 0)
(3.48485 -7.23825e-14 0)
(3.48485 -1.11293e-13 0)
(3.48485 -8.8942e-14 0)
(3.48485 -5.60297e-14 0)
(3.48485 -7.64832e-14 0)
(3.48485 -1.17264e-13 0)
(3.48485 -1.35313e-13 0)
(3.48485 -1.07852e-13 0)
(3.48485 -9.29894e-14 0)
(3.48485 -6.7475e-14 0)
(3.48485 -1.81165e-14 0)
(3.48485 4.56546e-14 0)
(3.48485 2.17171e-14 0)
(3.48485 -1.46659e-14 0)
(3.48485 1.1752e-14 0)
(3.48485 6.04571e-14 0)
(3.48485 4.18372e-14 0)
(3.48485 -3.00485e-14 0)
(3.48485 -6.49746e-14 0)
(3.48485 -2.83782e-14 0)
(3.48485 2.93351e-14 0)
(3.48485 2.5031e-14 0)
(3.48485 -1.29922e-14 0)
(3.48485 -2.91117e-14 0)
(3.48485 -8.63016e-14 0)
(3.48485 -1.11539e-13 0)
(3.48485 -8.94621e-14 0)
(3.48485 -1.06458e-13 0)
(3.48485 -1.38638e-14 0)
(3.48485 -2.94718e-15 0)
(3.48485 -3.44359e-14 0)
(3.48485 -5.39693e-14 0)
(3.48485 -5.43694e-14 0)
(3.48485 -3.36025e-14 0)
(3.48485 7.19458e-15 0)
(3.48485 1.88466e-14 0)
(3.48485 -8.00805e-15 0)
(3.48485 -1.81531e-14 0)
(3.48485 9.13491e-16 0)
(3.48485 -1.03551e-14 0)
(3.48485 -4.57946e-14 0)
(3.48485 -7.9387e-14 0)
(3.48485 -1.43358e-13 0)
(3.48485 -1.1616e-13 0)
(3.48485 -1.1729e-13 0)
(3.48485 -1.22618e-13 0)
(3.48485 -1.74597e-13 0)
(3.48485 -1.24125e-13 0)
(3.48485 -1.06358e-13 0)
(3.48485 -1.05422e-13 0)
(3.48485 -1.84165e-14 0)
(3.48485 1.05818e-14 0)
(3.48485 3.05853e-14 0)
(3.48485 -1.12819e-14 0)
(3.48485 -1.5536e-15 0)
(3.48485 -1.37924e-14 0)
(3.48485 1.948e-14 0)
(3.48485 2.74947e-14 0)
(3.48485 4.4581e-14 0)
(3.48485 1.22084e-13 0)
(3.48485 7.78901e-14 0)
(3.48485 2.56044e-15 0)
(3.48485 -1.58227e-14 0)
(3.48485 -5.72766e-14 0)
(3.48485 -4.52178e-14 0)
(3.48485 -6.55813e-14 0)
(3.48485 -4.77216e-14 0)
(3.48485 -4.8375e-14 0)
(3.48485 -6.23581e-15 0)
(3.48485 -8.00138e-17 0)
(3.48485 -8.63482e-15 0)
(3.48485 2.6938e-14 0)
(3.48485 4.23073e-14 0)
(3.48485 5.46461e-14 0)
(3.48485 -1.30489e-14 0)
(3.48485 -5.77166e-14 0)
(3.48485 -5.02553e-14 0)
(3.48485 -1.86299e-14 0)
(3.48485 -6.23774e-15 0)
(3.48485 -8.97155e-15 0)
(3.48485 8.90154e-16 0)
(3.48485 -3.44793e-14 0)
(3.48485 -5.87535e-14 0)
(3.48485 -4.74782e-14 0)
(3.48485 -4.57546e-14 0)
(3.48485 -3.32291e-14 0)
(3.48485 -2.78048e-14 0)
(3.48485 -3.4556e-14 0)
(3.48485 4.51345e-14 0)
(3.48485 6.85052e-14 0)
(3.48485 5.21557e-14 0)
(3.48485 4.80383e-14 0)
(3.48485 7.74734e-14 0)
(3.48485 7.38828e-14 0)
(3.48485 -1.12953e-14 0)
(3.48485 6.90119e-15 0)
(3.48485 5.808e-14 0)
(3.48485 7.1619e-14 0)
(3.48485 8.82719e-14 0)
(3.48485 5.92869e-14 0)
(3.48485 3.47993e-14 0)
(3.48485 -3.64896e-14 0)
(3.48485 -9.74602e-14 0)
(3.48485 -1.00601e-13 0)
(3.48485 -9.04356e-14 0)
(3.48485 -1.10459e-13 0)
(3.48485 -7.67899e-14 0)
(3.48485 -6.88919e-14 0)
(3.48485 -8.89431e-14 0)
(3.48485 4.39743e-15 0)
(3.48485 1.78764e-14 0)
(3.48485 8.43479e-15 0)
(3.48485 6.22441e-14 0)
(3.48485 7.45462e-14 0)
(3.48485 2.10836e-14 0)
(3.48485 -2.18704e-14 0)
(3.48485 -5.94236e-14 0)
(3.48485 -7.61798e-14 0)
(3.48485 -3.79732e-14 0)
(3.48485 -2.15937e-14 0)
(3.48485 -2.91684e-14 0)
(3.48485 -7.88636e-14 0)
(3.48485 -9.81136e-14 0)
(3.48485 -9.39462e-14 0)
(3.48485 -3.17155e-14 0)
(3.48485 1.69163e-14 0)
(3.48485 6.74516e-14 0)
(3.48485 9.04923e-14 0)
(3.48485 7.96471e-14 0)
(3.48485 7.76101e-14 0)
(3.48485 8.74218e-14 0)
(3.48485 1.06002e-13 0)
(3.48485 1.08809e-13 0)
(3.48485 7.52997e-14 0)
(3.48485 -3.05586e-14 0)
(3.48485 -4.0267e-14 0)
(3.48485 -1.33323e-14 0)
(3.48485 -2.48743e-14 0)
(3.48485 -2.18171e-14 0)
(3.48485 -5.78933e-14 0)
(3.48485 -6.36943e-14 0)
(3.48485 -5.36893e-14 0)
(3.48485 -8.44146e-14 0)
(3.48485 -9.14225e-14 0)
(3.48485 -7.8887e-14 0)
(3.48485 -3.62129e-14 0)
(3.48485 2.45042e-15 0)
(3.48485 1.52793e-14 0)
(3.48485 -1.97387e-14 0)
(3.48485 3.03219e-14 0)
(3.48485 5.87135e-14 0)
(3.48485 3.07353e-14 0)
(3.48485 2.20571e-14 0)
(3.48485 -1.85365e-14 0)
(3.48485 -7.55797e-15 0)
(3.48485 1.82732e-14 0)
(3.48485 -1.1612e-14 0)
(3.48485 -1.87699e-14 0)
(3.48485 1.84365e-15 0)
(3.48485 3.72131e-14 0)
(3.48485 -8.49147e-15 0)
(3.48485 -3.67997e-14 0)
(3.48485 -2.93084e-14 0)
(3.48485 3.92101e-14 0)
(3.48485 7.27526e-14 0)
(3.48485 4.34975e-14 0)
(3.48485 4.00869e-14 0)
(3.48485 4.46344e-14 0)
(3.48485 5.91502e-14 0)
(3.48485 6.44011e-14 0)
(3.48485 6.20674e-14 0)
(3.48485 3.78765e-14 0)
(3.48485 1.29222e-14 0)
(3.48485 -1.60828e-14 0)
(3.48485 -5.48195e-14 0)
(3.48485 -7.72167e-14 0)
(3.48485 -4.74949e-14 0)
(3.48485 6.83818e-14 0)
(3.48485 9.42663e-14 0)
(3.48485 8.83819e-14 0)
(3.48485 6.22874e-14 0)
(3.48485 8.41779e-14 0)
(3.48485 4.29741e-14 0)
(3.48485 -2.23305e-14 0)
(3.48485 -1.94934e-14 0)
(3.48485 4.01436e-14 0)
(3.48485 1.38944e-13 0)
(3.48485 8.78485e-14 0)
(3.48485 4.41019e-14 0)
(3.48485 1.46692e-16 0)
(3.48485 -2.60445e-14 0)
(3.48485 -9.96839e-15 0)
(3.48485 -1.00051e-14 0)
(3.48485 -2.45942e-14 0)
(3.48485 -3.56061e-15 0)
(3.48485 1.1821e-13 0)
(3.48485 1.69869e-13 0)
(3.48485 1.28229e-13 0)
(3.48485 8.83419e-14 0)
(3.48485 6.55747e-14 0)
(3.48485 7.50363e-14 0)
(3.48485 7.37794e-14 0)
(3.48485 7.79135e-14 0)
(3.48485 5.72932e-14 0)
(3.48485 4.30808e-14 0)
(3.48485 7.20091e-14 0)
(3.48485 2.26172e-14 0)
(3.48485 -4.05037e-14 0)
(3.48485 -3.01485e-14 0)
(3.48485 1.24288e-13 0)
(3.48485 1.70286e-13 0)
(3.48485 1.28986e-13 0)
(3.48485 9.67767e-14 0)
(3.48485 8.16108e-14 0)
(3.48485 6.41744e-14 0)
(3.48485 1.27965e-13 0)
(3.48485 9.93472e-14 0)
(3.48485 1.57197e-13 0)
(3.48485 1.76967e-13 0)
(3.48485 1.67229e-13 0)
(3.48485 2.14187e-13 0)
(3.48485 2.54307e-13 0)
(3.48485 2.03852e-13 0)
(3.48485 1.67262e-13 0)
(3.48485 8.49213e-14 0)
(3.48485 1.00811e-13 0)
(3.48485 1.51006e-13 0)
(3.48485 1.25618e-13 0)
(3.48485 1.01699e-13 0)
(3.48485 -4.83817e-14 0)
(3.48485 -1.06548e-13 0)
(3.48485 -6.55713e-14 0)
(3.48485 -2.94651e-14 0)
(3.48485 1.17787e-14 0)
(3.48485 -1.45392e-14 0)
(3.48485 5.35826e-14 0)
(3.48485 1.22308e-13 0)
(3.48485 1.59891e-13 0)
(3.48485 1.5475e-13 0)
(3.48485 1.01684e-13 0)
(3.48485 7.27126e-15 0)
(3.48485 -5.00086e-16 0)
(3.48485 8.28476e-15 0)
(3.48485 4.68414e-14 0)
(3.48485 6.7785e-14 0)
(3.48485 1.05675e-13 0)
(3.48485 9.61433e-14 0)
(3.48485 5.91769e-14 0)
(3.48485 4.99786e-14 0)
(3.48485 1.15317e-13 0)
(3.48485 1.93533e-13 0)
(3.48485 2.3214e-13 0)
(3.48485 2.13644e-13 0)
(3.48485 1.87952e-13 0)
(3.48485 1.3419e-13 0)
(3.48485 1.12839e-13 0)
(3.48485 8.51747e-14 0)
(3.48485 8.11107e-14 0)
(3.48485 1.00814e-13 0)
(3.48485 1.74073e-13 0)
(3.48485 2.78705e-13 0)
(3.48485 2.2949e-13 0)
(3.48485 2.05515e-13 0)
(3.48485 1.91586e-13 0)
(3.48485 2.07946e-13 0)
(3.48485 1.71426e-13 0)
(3.48485 1.1356e-13 0)
(3.48485 1.26355e-13 0)
(3.48485 1.47101e-13 0)
(3.48485 -3.18155e-14 0)
(3.48485 -7.67132e-15 0)
(3.48485 1.45292e-14 0)
(3.48485 4.73482e-14 0)
(3.48485 3.79932e-14 0)
(3.48485 1.24288e-14 0)
(3.48485 -3.2949e-14 0)
(3.48485 -2.67246e-14 0)
(3.48485 9.69401e-14 0)
(3.48485 1.40848e-13 0)
(3.48485 1.31159e-13 0)
(3.48485 5.2339e-14 0)
(3.48485 4.91218e-14 0)
(3.48485 8.76618e-14 0)
(3.48485 1.85005e-13 0)
(3.48485 1.67159e-13 0)
(3.48485 9.94872e-14 0)
(3.48485 9.0589e-14 0)
(3.48485 6.32409e-14 0)
(3.48485 1.79698e-14 0)
(3.48485 -1.75097e-14 0)
(3.48485 5.19223e-14 0)
(3.48485 1.60664e-13 0)
(3.48485 1.75964e-13 0)
(3.48485 1.12069e-13 0)
(3.48485 5.11022e-14 0)
(3.48485 -3.93868e-14 0)
(3.48485 1.43458e-14 0)
(3.48485 6.66548e-14 0)
(3.48485 1.06152e-13 0)
(3.48485 2.58061e-13 0)
(3.48485 2.51837e-13 0)
(3.48485 1.9579e-13 0)
(3.48485 1.64802e-13 0)
(3.48485 1.7469e-13 0)
(3.48485 1.68376e-13 0)
(3.48485 1.33056e-13 0)
(3.48485 7.59364e-14 0)
(3.48485 8.36078e-14 0)
(3.48485 1.81555e-13 0)
(3.48485 4.89985e-14 0)
(3.48485 6.95753e-14 0)
(3.48485 7.10356e-14 0)
(3.48485 5.24924e-14 0)
(3.48485 2.18071e-14 0)
(3.48485 4.32775e-14 0)
(3.48485 7.25659e-14 0)
(3.48485 5.9997e-14 0)
(3.48485 6.63748e-14 0)
(3.48485 5.91902e-14 0)
(3.48485 5.68765e-14 0)
(3.48485 1.10969e-13 0)
(3.48485 1.43045e-13 0)
(3.48485 1.72623e-13 0)
(3.48485 1.48249e-13 0)
(3.48485 5.28525e-14 0)
(3.48485 1.43591e-14 0)
(3.48485 -9.80836e-15 0)
(3.48485 -1.00644e-13 0)
(3.48485 -1.71663e-13 0)
(3.48485 -1.5395e-13 0)
(3.48485 -1.10796e-13 0)
(3.48485 -4.58346e-14 0)
(3.48485 5.54196e-14 0)
(3.48485 5.72866e-14 0)
(3.48485 4.05203e-14 0)
(3.48485 2.04202e-14 0)
(3.48485 1.22621e-13 0)
(3.48485 2.03018e-13 0)
(3.48485 2.99398e-13 0)
(3.48485 1.91133e-13 0)
(3.48485 1.17377e-13 0)
(3.48485 9.67167e-14 0)
(3.48485 1.00101e-13 0)
(3.48485 8.67183e-14 0)
(3.48485 6.37643e-14 0)
(3.48485 1.51636e-13 0)
(3.48485 1.53013e-13 0)
(3.48485 1.12056e-13 0)
(3.48485 1.56321e-13 0)
(3.48485 1.24555e-14 0)
(3.48485 1.97901e-14 0)
(3.48485 -1.72696e-15 0)
(3.48485 -2.73214e-14 0)
(3.48485 -5.11155e-14 0)
(3.48485 6.77784e-15 0)
(3.48485 4.87784e-14 0)
(3.48485 3.42592e-14 0)
(3.48485 -2.86116e-14 0)
(3.48485 -2.59378e-14 0)
(3.48485 6.45045e-14 0)
(3.48485 1.79551e-13 0)
(3.48485 2.1274e-13 0)
(3.48485 1.33636e-13 0)
(3.48485 4.97453e-14 0)
(3.48485 -5.791e-15 0)
(3.48485 -9.92471e-14 0)
(3.48485 -1.11533e-13 0)
(3.48485 -1.28165e-13 0)
(3.48485 -1.32593e-13 0)
(3.48485 -1.64895e-13 0)
(3.48485 -1.50039e-13 0)
(3.48485 -1.11516e-13 0)
(3.48485 2.68046e-15 0)
(3.48485 1.02391e-13 0)
(3.48485 1.5449e-13 0)
(3.48485 2.60028e-13 0)
(3.48485 2.53717e-13 0)
(3.48485 2.3117e-13 0)
(3.48485 1.97411e-13 0)
(3.48485 -1.10719e-14 0)
(3.48485 -4.97053e-14 0)
(3.48485 -6.54313e-14 0)
(3.48485 3.51727e-15 0)
(3.48485 4.35509e-14 0)
(3.48485 9.34295e-14 0)
(3.48485 8.64049e-14 0)
(3.48485 8.40378e-14 0)
(3.48485 9.78402e-14 0)
(3.48485 9.05496e-14 0)
(3.48485 -1.25588e-14 0)
(3.48485 -1.86966e-14 0)
(3.48485 -4.92452e-14 0)
(3.48485 -3.33791e-14 0)
(3.48485 -1.96634e-14 0)
(3.48485 -8.35478e-15 0)
(3.48485 -5.34492e-14 0)
(3.48485 -5.27358e-14 0)
(3.48485 -1.3319e-14 0)
(3.48485 -1.98934e-14 0)
(3.48485 2.79148e-14 0)
(3.48485 6.41411e-14 0)
(3.48485 4.49944e-14 0)
(3.48485 -1.88032e-15 0)
(3.48485 -4.21873e-14 0)
(3.48485 -8.17841e-14 0)
(3.48485 -1.12773e-13 0)
(3.48485 -1.24995e-13 0)
(3.48485 -4.9912e-14 0)
(3.48485 3.6593e-14 0)
(3.48485 3.97369e-14 0)
(3.48485 -2.81715e-15 0)
(3.48485 -4.28341e-14 0)
(3.48485 2.62645e-14 0)
(3.48485 1.13093e-13 0)
(3.48485 1.84479e-13 0)
(3.48485 1.90373e-13 0)
(3.48485 1.51233e-13 0)
(3.48485 2.56778e-14 0)
(3.48485 -6.73683e-14 0)
(3.48485 -1.22825e-13 0)
(3.48485 -1.24398e-13 0)
(3.48485 -5.91102e-14 0)
(3.48485 -3.00552e-14 0)
(3.48485 -1.04151e-14 0)
(3.48485 -1.915e-14 0)
(3.48485 -7.1379e-15 0)
(3.48485 -2.19038e-14 0)
(3.48485 -9.84503e-15 0)
(3.48485 1.79291e-14 0)
(3.48485 -1.07652e-14 0)
(3.48485 -1.57194e-14 0)
(3.48485 1.76197e-14 0)
(3.48485 1.04018e-14 0)
(3.48485 -6.31776e-15 0)
(3.48485 -2.62345e-14 0)
(3.48485 -6.1984e-14 0)
(3.48485 -8.22742e-14 0)
(3.48485 -4.54779e-14 0)
(3.48485 -2.96818e-14 0)
(3.48485 -3.94301e-14 0)
(3.48485 -5.50762e-14 0)
(3.48485 -9.69734e-14 0)
(3.48485 -6.10839e-14 0)
(3.48485 -1.15463e-13 0)
(3.48485 -1.51099e-13 0)
(3.48485 -1.16393e-13 0)
(3.48485 -2.19004e-14 0)
(3.48485 1.53527e-14 0)
(3.48485 7.1519e-14 0)
(3.48485 9.08257e-14 0)
(3.48485 3.77465e-14 0)
(3.48485 -6.61314e-14 0)
(3.48485 -1.18664e-13 0)
(3.48485 -2.61879e-14 0)
(3.48485 -2.7248e-14 0)
(3.48485 -1.82331e-14 0)
(3.48485 3.31724e-15 0)
(3.48485 -4.19606e-14 0)
(3.48485 -1.09909e-13 0)
(3.48485 -9.37595e-14 0)
(3.48485 -8.04572e-14 0)
(3.48485 -4.88151e-14 0)
(3.48485 -1.02941e-13 0)
(3.48485 -1.36607e-13 0)
(3.48485 -2.0962e-13 0)
(3.48485 -1.81418e-13 0)
(3.48485 -1.56097e-13 0)
(3.48485 -1.55157e-13 0)
(3.48485 -5.96436e-14 0)
(3.48485 -2.16704e-16 0)
(3.48485 1.01351e-15 0)
(3.48485 2.84382e-14 0)
(3.48485 -6.88452e-15 0)
(3.48485 -2.17704e-15 0)
(3.48485 -2.00868e-14 0)
(3.48485 1.98201e-14 0)
(3.48485 -1.67362e-14 0)
(3.48485 -1.57627e-14 0)
(3.48485 6.53613e-14 0)
(3.48485 4.78949e-14 0)
(3.48485 -1.08785e-14 0)
(3.48485 -5.93536e-14 0)
(3.48485 -7.56031e-14 0)
(3.48485 -7.99405e-14 0)
(3.48485 -6.15273e-14 0)
(3.48485 -7.88469e-14 0)
(3.48485 8.56748e-14 0)
(3.48485 1.09186e-13 0)
(3.48485 1.09779e-13 0)
(3.48485 1.23391e-13 0)
(3.48485 6.70282e-14 0)
(3.48485 -6.91086e-14 0)
(3.48485 -2.09246e-13 0)
(3.48485 -2.03942e-13 0)
(3.48485 -1.57417e-13 0)
(3.48485 -1.65289e-13 0)
(3.48485 -1.58284e-13 0)
(3.48485 -1.41511e-13 0)
(3.48485 -8.71117e-14 0)
(3.48485 -6.97054e-14 0)
(3.48485 -3.78465e-14 0)
(3.48485 -6.19107e-14 0)
(3.48485 -5.55296e-14 0)
(3.48485 -2.66379e-14 0)
(3.48485 -5.41127e-14 0)
(3.48485 -9.09524e-14 0)
(3.48485 -1.61918e-13 0)
(3.48485 -1.9212e-13 0)
(3.48485 -2.21471e-13 0)
(3.48485 -9.42163e-15 0)
(3.48485 1.11053e-14 0)
(3.48485 1.24021e-14 0)
(3.48485 7.3446e-15 0)
(3.48485 1.37157e-14 0)
(3.48485 8.36144e-15 0)
(3.48485 7.83135e-15 0)
(3.48485 2.84916e-14 0)
(3.48485 1.08852e-14 0)
(3.48485 1.60494e-14 0)
(3.48485 3.32791e-14 0)
(3.48485 6.29775e-15 0)
(3.48485 1.91066e-14 0)
(3.48485 -4.76382e-14 0)
(3.48485 1.96034e-15 0)
(3.48485 8.92821e-14 0)
(3.48485 1.40788e-13 0)
(3.48485 1.54927e-13 0)
(3.48485 1.84509e-13 0)
(3.48485 1.58467e-13 0)
(3.48485 1.27632e-13 0)
(3.48485 1.02264e-13 0)
(3.48485 2.6818e-14 0)
(3.48485 -1.91533e-14 0)
(3.48485 -7.09222e-14 0)
(3.48485 -1.31363e-13 0)
(3.48485 -1.45125e-13 0)
(3.48485 -1.94304e-13 0)
(3.48485 -2.19225e-13 0)
(3.48485 -1.7547e-13 0)
(3.48485 -1.10039e-13 0)
(3.48485 -9.83203e-14 0)
(3.48485 -1.1849e-13 0)
(3.48485 -1.08685e-13 0)
(3.48485 -3.69597e-14 0)
(3.48485 8.98822e-15 0)
(3.48485 -1.68963e-14 0)
(3.48485 -1.18334e-13 0)
(3.48485 -1.5329e-13 0)
(3.48485 -1.95446e-13 0)
(3.48485 1.67562e-14 0)
(3.48485 1.23188e-14 0)
(3.48485 3.13654e-14 0)
(3.48485 6.69849e-14 0)
(3.48485 6.71083e-14 0)
(3.48485 7.44662e-14 0)
(3.48485 5.51595e-14 0)
(3.48485 1.12903e-13 0)
(3.48485 6.96254e-14 0)
(3.48485 4.43977e-14 0)
(3.48485 3.58462e-14 0)
(3.48485 6.33209e-14 0)
(3.48485 4.8185e-14 0)
(3.48485 3.19955e-14 0)
(3.48485 2.3384e-14 0)
(3.48485 6.61514e-14 0)
(3.48485 1.65665e-13 0)
(3.48485 2.19001e-13 0)
(3.48485 1.74847e-13 0)
(3.48485 7.47262e-14 0)
(3.48485 -5.5923e-14 0)
(3.48485 -4.61246e-14 0)
(3.48485 -5.28091e-15 0)
(3.48485 1.69896e-14 0)
(3.48485 3.51727e-15 0)
(3.48485 -8.93521e-14 0)
(3.48485 -9.4443e-14 0)
(3.48485 -1.3359e-13 0)
(3.48485 -1.55594e-13 0)
(3.48485 -1.70416e-13 0)
(3.48485 -1.66749e-13 0)
(3.48485 -1.84825e-13 0)
(3.48485 -1.84208e-13 0)
(3.48485 -1.61938e-13 0)
(3.48485 -1.3254e-13 0)
(3.48485 -1.3257e-13 0)
(3.48485 -1.08212e-13 0)
(3.48485 -7.97404e-14 0)
(3.48485 -7.25059e-14 0)
(3.48485 -1.11468e-13 0)
(3.48485 3.85066e-15 0)
(3.48485 -1.83465e-14 0)
(3.48485 -4.09104e-14 0)
(3.48485 -6.58114e-14 0)
(3.48485 -3.48527e-14 0)
(3.48485 -8.53481e-16 0)
(3.48485 8.65149e-15 0)
(3.48485 -3.0992e-14 0)
(3.48485 -4.98753e-14 0)
(3.48485 -6.76017e-14 0)
(3.48485 2.27039e-15 0)
(3.48485 8.81286e-14 0)
(3.48485 2.79448e-14 0)
(3.48485 4.59613e-14 0)
(3.48485 6.42178e-14 0)
(3.48485 8.6655e-14 0)
(3.48485 8.6735e-14 0)
(3.48485 -1.08519e-14 0)
(3.48485 -3.72431e-14 0)
(3.48485 -1.11243e-13 0)
(3.48485 -1.18374e-13 0)
(3.48485 -1.16707e-13 0)
(3.48485 -1.25868e-13 0)
(3.48485 -9.95472e-14 0)
(3.48485 -1.26232e-13 0)
(3.48485 -1.45915e-13 0)
(3.48485 -1.52893e-13 0)
(3.48485 -1.44618e-13 0)
(3.48485 -2.30493e-13 0)
(3.48485 -2.27006e-13 0)
(3.48485 -2.51397e-13 0)
(3.48485 -2.41365e-13 0)
(3.48485 -2.50687e-13 0)
(3.48485 -2.5068e-13 0)
(3.48485 -2.07286e-13 0)
(3.48485 -2.00248e-13 0)
(3.48485 -1.96844e-13 0)
(3.48485 -2.46016e-13 0)
(3.48485 -2.17974e-13 0)
(3.48485 -1.57078e-13 0)
(3.48485 -4.69548e-14 0)
(3.48485 -4.06103e-14 0)
(3.48485 -7.20558e-14 0)
(3.48485 -6.31809e-14 0)
(3.48485 -9.35161e-14 0)
(3.48485 -1.21181e-13 0)
(3.48485 -1.39697e-13 0)
(3.48485 -1.83428e-13 0)
(3.48485 -1.66269e-13 0)
(3.48485 -1.47129e-13 0)
(3.48485 -1.21474e-13 0)
(3.48485 -7.70233e-14 0)
(3.48485 -6.09339e-14 0)
(3.48485 -5.65431e-14 0)
(3.48485 -2.2914e-14 0)
(3.48485 -4.09104e-14 0)
(3.48485 -5.06721e-14 0)
(3.48485 -7.90036e-14 0)
(3.48485 -7.67899e-14 0)
(3.48485 -1.09209e-13 0)
(3.48485 -1.68959e-13 0)
(3.48485 -1.84819e-13 0)
(3.48485 -1.35987e-13 0)
(3.48485 -1.21451e-13 0)
(3.48485 -1.13776e-13 0)
(3.48485 -1.06055e-13 0)
(3.48485 -1.1409e-13 0)
(3.48485 -2.3451e-13 0)
(3.48485 -2.33794e-13 0)
(3.48485 -2.37471e-13 0)
(3.48485 -2.26529e-13 0)
(3.48485 -2.05085e-13 0)
(3.48485 -1.9506e-13 0)
(3.48485 -1.48339e-13 0)
(3.48485 -1.81265e-13 0)
(3.48485 -2.57174e-13 0)
(3.48485 -3.43136e-13 0)
(3.48485 -3.4642e-13 0)
(3.48485 -3.28117e-13 0)
(3.48485 -1.51089e-13 0)
(3.48485 8.42479e-15 0)
(3.48485 6.90786e-15 0)
(3.48485 2.77648e-14 0)
(3.48485 3.94135e-14 0)
(3.48485 1.32156e-14 0)
(3.48485 -1.15587e-14 0)
(3.48485 -2.3154e-14 0)
(3.48485 -3.53394e-15 0)
(3.48485 -1.01151e-14 0)
(3.48485 2.03368e-16 0)
(3.48485 -7.09956e-14 0)
(3.48485 -1.85112e-13 0)
(3.48485 -1.50576e-13 0)
(3.48485 -9.77069e-14 0)
(3.48485 -9.88937e-14 0)
(3.48485 -1.23658e-13 0)
(3.48485 -8.07339e-14 0)
(3.48485 -6.66848e-14 0)
(3.48485 -1.04865e-13 0)
(3.48485 -1.19797e-13 0)
(3.48485 -1.50293e-13 0)
(3.48485 -1.79564e-13 0)
(3.48485 -1.62565e-13 0)
(3.48485 -2.21262e-13 0)
(3.48485 -2.58828e-13 0)
(3.48485 -2.04125e-13 0)
(3.48485 -1.54333e-13 0)
(3.48485 -5.42527e-14 0)
(3.48485 -5.98003e-14 0)
(3.48485 -1.40368e-13 0)
(3.48485 -1.03248e-13 0)
(3.48485 -1.29519e-13 0)
(3.48485 -1.01151e-13 0)
(3.48485 -9.8197e-14 0)
(3.48485 -1.24021e-13 0)
(3.48485 -1.71466e-13 0)
(3.48485 -1.69163e-13 0)
(3.48485 -1.50789e-13 0)
(3.48485 -1.37027e-13 0)
(3.48485 -1.60741e-13 0)
(3.48485 7.22425e-14 0)
(3.48485 9.53031e-14 0)
(3.48485 8.4918e-14 0)
(3.48485 3.50594e-14 0)
(3.48485 2.97585e-14 0)
(3.48485 -3.10387e-15 0)
(3.48485 1.49626e-14 0)
(3.48485 4.93552e-14 0)
(3.48485 1.89133e-14 0)
(3.48485 -3.64496e-14 0)
(3.48485 -7.5433e-14 0)
(3.48485 -8.3181e-14 0)
(3.48485 -7.21491e-14 0)
(3.48485 1.68896e-14 0)
(3.48485 9.45997e-14 0)
(3.48485 8.92888e-14 0)
(3.48485 5.2299e-14 0)
(3.48485 -8.79485e-15 0)
(3.48485 -1.38601e-13 0)
(3.48485 -1.36684e-13 0)
(3.48485 -1.25178e-13 0)
(3.48485 -1.24772e-13 0)
(3.48485 -1.58667e-13 0)
(3.48485 -1.17327e-13 0)
(3.48485 -1.86792e-13 0)
(3.48485 -1.56744e-13 0)
(3.48485 -1.92697e-13 0)
(3.48485 -1.46002e-13 0)
(3.48485 -8.53581e-14 0)
(3.48485 -1.40988e-13 0)
(3.48485 -1.9386e-13 0)
(3.48485 -1.66622e-13 0)
(3.48485 -1.09692e-13 0)
(3.48485 -1.5325e-13 0)
(3.48485 -1.96731e-13 0)
(3.48485 -2.23749e-13 0)
(3.48485 -1.98514e-13 0)
(3.48485 -2.00028e-13 0)
(3.48485 -2.35617e-13 0)
(3.48485 -2.90683e-13 0)
(3.48485 -1.13086e-14 0)
(3.48485 -2.17771e-14 0)
(3.48485 1.05085e-14 0)
(3.48485 3.52161e-14 0)
(3.48485 4.88151e-14 0)
(3.48485 3.56762e-14 0)
(3.48485 3.75465e-14 0)
(3.48485 3.6883e-14 0)
(3.48485 -2.8665e-14 0)
(3.48485 -4.65614e-14 0)
(3.48485 -5.01553e-14 0)
(3.48485 -3.90934e-14 0)
(3.48485 9.18492e-15 0)
(3.48485 2.55244e-14 0)
(3.48485 1.63295e-14 0)
(3.48485 1.88199e-14 0)
(3.48485 -2.16371e-15 0)
(3.48485 -3.65363e-14 0)
(3.48485 -1.09622e-13 0)
(3.48485 -1.59631e-13 0)
(3.48485 -2.34037e-13 0)
(3.48485 -1.53383e-13 0)
(3.48485 -1.07882e-13 0)
(3.48485 -2.18338e-14 0)
(3.48485 -4.2604e-14 0)
(3.48485 -1.41324e-14 0)
(3.48485 -2.57711e-14 0)
(3.48485 -6.08072e-14 0)
(3.48485 -5.57496e-14 0)
(3.48485 -1.61825e-13 0)
(3.48485 -1.9282e-13 0)
(3.48485 -1.7253e-13 0)
(3.48485 -2.64679e-13 0)
(3.48485 -3.0684e-13 0)
(3.48485 -2.84789e-13 0)
(3.48485 -2.82279e-13 0)
(3.48485 -3.38465e-13 0)
(3.48485 -4.12668e-13 0)
(3.48485 -4.08747e-13 0)
(3.48485 -4.44762e-13 0)
(3.48485 -1.88699e-14 0)
(3.48485 -2.35141e-14 0)
(3.48485 3.16055e-15 0)
(3.48485 8.60582e-14 0)
(3.48485 9.49897e-14 0)
(3.48485 1.27832e-13 0)
(3.48485 1.7582e-13 0)
(3.48485 1.12406e-13 0)
(3.48485 6.76217e-14 0)
(3.48485 2.83949e-14 0)
(3.48485 2.51377e-14 0)
(3.48485 5.27224e-14 0)
(3.48485 5.85801e-14 0)
(3.48485 1.91833e-14 0)
(3.48485 5.45761e-15 0)
(3.48485 -4.51811e-14 0)
(3.48485 -8.34811e-14 0)
(3.48485 -8.3151e-14 0)
(3.48485 -6.09805e-14 0)
(3.48485 -6.77117e-14 0)
(3.48485 -5.23824e-14 0)
(3.48485 2.19671e-14 0)
(3.48485 2.79848e-14 0)
(3.48485 -1.21921e-14 0)
(3.48485 -2.90183e-14 0)
(3.48485 -4.4571e-14 0)
(3.48485 -4.55645e-14 0)
(3.48485 -7.10956e-14 0)
(3.48485 -1.3652e-13 0)
(3.48485 -2.1169e-13 0)
(3.48485 -2.23952e-13 0)
(3.48485 -2.54961e-13 0)
(3.48485 -3.98876e-13 0)
(3.48485 -4.6318e-13 0)
(3.48485 -3.38728e-13 0)
(3.48485 -2.60945e-13 0)
(3.48485 -2.81399e-13 0)
(3.48485 -2.44326e-13 0)
(3.48485 -2.51677e-13 0)
(3.48485 -2.35443e-13 0)
(3.48485 1.40424e-14 0)
(3.48485 1.21454e-14 0)
(3.48485 -1.26889e-14 0)
(3.48485 -7.82969e-14 0)
(3.48485 -6.07805e-14 0)
(3.48485 -1.1602e-14 0)
(3.48485 1.99168e-14 0)
(3.48485 5.89168e-14 0)
(3.48485 5.5973e-14 0)
(3.48485 -1.68796e-14 0)
(3.48485 1.15987e-14 0)
(3.48485 3.6673e-17 0)
(3.48485 -5.14622e-14 0)
(3.48485 -5.38226e-14 0)
(3.48485 2.26372e-14 0)
(3.48485 6.09105e-14 0)
(3.48485 -2.07803e-14 0)
(3.48485 -2.09503e-14 0)
(3.48485 -9.59166e-15 0)
(3.48485 4.23773e-14 0)
(3.48485 6.80117e-14 0)
(3.48485 -1.33356e-14 0)
(3.48485 -2.40008e-14 0)
(3.48485 -8.24842e-14 0)
(3.48485 -1.32736e-13 0)
(3.48485 -1.51213e-13 0)
(3.48485 -1.87526e-13 0)
(3.48485 -2.23575e-13 0)
(3.48485 -2.31787e-13 0)
(3.48485 -1.81711e-13 0)