/*--------------------------------*- C++ -*----------------------------------*\
| =========                 |                                                 |
| \\      /  F ield         | OpenFOAM: The Open Source CFD Toolbox           |
|  \\    /   O peration     | Version:  2206                                  |
|   \\  /    A nd           | Website:  www.openfoam.com                      |
|    \\/     M anipulation  |                                                 |
\*---------------------------------------------------------------------------*/
FoamFile
{
    version     2.0;
    format      ascii;
    arch        "LSB;label=32;scalar=64";
    class       volVectorField;
    location    "0.08";
    object      U;
}
// * * * * * * * * * * * * * * * * * * * * * * * * * * * * * * * * * * * * * //

dimensions      [0 1 -1 0 0 0 0];

internalField   nonuniform List<vector> 
75
(
(3.84848 -5.26549e-15 0)
(3.84848 -5.24924e-15 0)
(3.84848 2.62545e-17 0)
(3.84848 -2.77965e-16 0)
(3.84848 -9.29327e-16 0)
(3.84848 -4.78833e-16 0)
(3.84848 -7.01496e-15 0)
(3.84848 -6.5853e-15 0)
(3.84848 -6.36068e-15 0)
(3.84848 -5.62956e-15 0)
(3.84848 -5.33134e-15 0)
(3.84848 -5.21965e-15 0)
(3.84848 -9.6225e-15 0)
(3.84848 -8.77276e-15 0)
(3.84848 -8.24854e-16 0)
(3.84848 -4.76999e-15 0)
(3.84848 -7.60548e-16 0)
(3.84848 3.79649e-15 0)
(3.84848 8.09556e-15 0)
(3.84848 1.51002e-14 0)
(3.84848 4.76999e-15 0)
(3.84848 4.40701e-15 0)
(3.84848 7.87094e-15 0)
(3.84848 1.58298e-14 0)
(3.84848 1.58398e-14 0)
(3.80171 0.0129202 0)
(3.73545 0.0658021 0)
(3.66643 0.147343 0)
(3.59019 0.259962 0)
(3.5317 0.350816 0)
(3.45683 0.497116 0)
(3.44402 0.607854 0)
(3.42893 0.715364 0)
(3.39846 0.819387 0)
(3.42227 0.932886 0)
(3.84676 0.00241454 0)
(3.83658 0.020405 0)
(3.80796 0.0776644 0)
(3.74963 0.201423 0)
(3.66515 0.395879 0)
(3.54706 0.658162 0)
(3.45074 0.917824 0)
(3.37587 1.11308 0)
(3.32319 1.16333 0)
(3.3736 1.10395 0)
(3.8485 -2.5888e-05 0)
(3.84842 0.000135179 0)
(3.84842 5.73948e-05 0)
(3.84742 0.00237225 0)
(3.8421 0.0148368 0)
(3.8207 0.0714567 0)
(3.7842 0.202034 0)
(3.72171 0.451015 0)
(3.70675 0.697895 0)
(3.60077 0.91796 0)
(3.84849 -3.30686e-06 0)
(3.84849 -1.88309e-06 0)
(3.84849 -2.3786e-06 0)
(3.84848 5.90158e-06 0)
(3.84852 -8.75323e-05 0)
(3.84824 0.000494733 0)
(3.84548 0.00982252 0)
(3.82745 0.076541 0)
(3.81027 0.291329 0)
(3.72124 0.751485 0)
(3.84848 -1.16755e-08 0)
(3.84848 -1.50422e-07 0)
(3.84849 -4.09057e-07 0)
(3.84849 -5.02632e-07 0)
(3.8485 -1.97868e-05 0)
(3.84849 -1.67953e-05 0)
(3.8485 -3.59915e-05 0)
(3.84799 0.000691049 0)
(3.84283 0.0141363 0)
(3.7759 0.21676 0)
)
;

boundaryField
{
    inlet
    {
        type            fixedValue;
        value           uniform (3.84848 0 0);
    }
    outlet
    {
        type            zeroGradient;
    }
    bottom
    {
        type            symmetryPlane;
    }
    top
    {
        type            symmetryPlane;
    }
    obstacle
    {
        type            slip;
    }
    defaultFaces
    {
        type            empty;
    }
}


// ************************************************************************* //
