/*--------------------------------*- C++ -*----------------------------------*\
| =========                 |                                                 |
| \\      /  F ield         | OpenFOAM: The Open Source CFD Toolbox           |
|  \\    /   O peration     | Version:  2206                                  |
|   \\  /    A nd           | Website:  www.openfoam.com                      |
|    \\/     M anipulation  |                                                 |
\*---------------------------------------------------------------------------*/
FoamFile
{
    version     2.0;
    format      ascii;
    arch        "LSB;label=32;scalar=64";
    class       volScalarField;
    location    "0.08";
    object      rho;
}
// * * * * * * * * * * * * * * * * * * * * * * * * * * * * * * * * * * * * * //

dimensions      [1 -3 0 0 0 0 0];

internalField   nonuniform List<scalar> 
4800
(
1.40001
1.40001
1.40001
1.40001
1.40001
1.40001
1.40001
1.40001
1.40001
1.40001
1.40001
1.40001
1.40001
1.40001
1.40001
1.40001
1.40001
1.40001
1.40001
1.40001
1.40001
1.40001
1.40001
1.40001
1.40001
1.40001
1.40001
1.40001
1.40001
1.40001
1.40001
1.40001
1.40001
1.40001
1.40001
1.40001
1.40001
1.40001
1.40001
1.40001
1.40001
1.40001
1.40001
1.40001
1.40001
1.40001
1.40001
1.40001
1.40001
1.40001
1.40001
1.40001
1.40001
1.40001
1.40001
1.40001
1.40001
1.40001
1.40001
1.40001
1.40001
1.40001
1.40001
1.40001
1.40001
1.40001
1.40001
1.40001
1.40001
1.40001
1.40001
1.40001
1.40001
1.40001
1.40001
1.40001
1.40001
1.40001
1.40001
1.40001
1.40001
1.40001
1.40001
1.40001
1.40001
1.40001
1.40001
1.40001
1.40001
1.40001
1.40001
1.40001
1.40001
1.40001
1.40001
1.40001
1.40001
1.40001
1.40001
1.40001
1.40001
1.40001
1.40001
1.40001
1.40001
1.40001
1.40001
1.40001
1.40001
1.40001
1.40001
1.40001
1.40001
1.40001
1.40001
1.40001
1.40001
1.40001
1.40001
1.40001
1.40001
1.40001
1.40001
1.40001
1.40001
1.40001
1.40001
1.40001
1.40001
1.40001
1.40001
1.40001
1.40001
1.40001
1.40001
1.40001
1.40001
1.40001
1.40001
1.40001
1.40001
1.40001
1.40001
1.40001
1.40001
1.40001
1.40001
1.40001
1.40001
1.40001
1.40001
1.40001
1.40001
1.40001
1.40001
1.40001
1.40001
1.40001
1.40001
1.40001
1.40001
1.40001
1.40001
1.40001
1.40001
1.40001
1.40001
1.40001
1.40001
1.40001
1.40001
1.40001
1.40001
1.40001
1.40001
1.40001
1.40001
1.40001
1.40001
1.40001
1.40001
1.40001
1.40001
1.40001
1.40001
1.40001
1.40001
1.40001
1.40001
1.40001
1.40001
1.40001
1.40001
1.40001
1.40001
1.40001
1.40001
1.40001
1.40001
1.40001
1.40001
1.40001
1.40001
1.40001
1.40001
1.40001
1.40001
1.40001
1.40001
1.40001
1.40001
1.40001
1.40001
1.40001
1.40001
1.40001
1.40001
1.40001
1.40001
1.40001
1.40001
1.40001
1.40001
1.40001
1.40001
1.40001
1.40001
1.40001
1.40001
1.40001
1.40001
1.40001
1.40001
1.40001
1.40001
1.40001
1.40001
1.40001
1.40001
1.40001
1.40001
1.40001
1.40001
1.40001
1.40001
1.40001
1.40001
1.40001
1.40001
1.40001
1.40001
1.40001
1.40001
1.40001
1.40001
1.40001
1.40001
1.40001
1.40001
1.40001
1.40001
1.40001
1.40001
1.40001
1.40001
1.40001
1.40001
1.40001
1.40001
1.40001
1.40001
1.40001
1.40001
1.40001
1.40001
1.40001
1.40001
1.40001
1.40001
1.40001
1.40001
1.40001
1.40001
1.40001
1.40001
1.40001
1.40001
1.40001
1.40001
1.40001
1.40001
1.40001
1.40001
1.40001
1.40001
1.40001
1.40001
1.40001
1.40001
1.40001
1.40001
1.40001
1.40001
1.40001
1.40001
1.40001
1.40001
1.40001
1.40001
1.40001
1.40001
1.40001
1.40001
1.40001
1.40001
1.40001
1.40001
1.40001
1.40001
1.40001
1.40001
1.40001
1.40001
1.40001
1.40001
1.40001
1.40001
1.40001
1.40001
1.40001
1.40001
1.40001
1.40001
1.40001
1.40001
1.40001
1.40001
1.40001
1.40001
1.40001
1.40001
1.40001
1.40001
1.40001
1.40001
1.40001
1.40001
1.40001
1.40001
1.40001
1.40001
1.40001
1.40001
1.40001
1.40001
1.40001
1.40001
1.40001
1.40001
1.40001
1.40001
1.40001
1.40001
1.40001
1.40001
1.40001
1.40001
1.40001
1.40001
1.40001
1.40001
1.40001
1.40001
1.40001
1.40001
1.40001
1.40001
1.40001
1.40001
1.40001
1.40001
1.40001
1.40001
1.40001
1.40001
1.40001
1.40001
1.40001
1.40001
1.40001
1.40001
1.40001
1.40001
1.40001
1.40001
1.40001
1.40001
1.40001
1.40001
1.40001
1.40001
1.40001
1.40001
1.40001
1.40001
1.40001
1.40001
1.40001
1.40001
1.40001
1.40001
1.40001
1.40001
1.40001
1.40001
1.40001
1.40001
1.40001
1.40001
1.40001
1.40001
1.40001
1.40001
1.40001
1.40001
1.40001
1.40001
1.40001
1.40001
1.40001
1.40001
1.40001
1.40001
1.40001
1.40001
1.40001
1.40001
1.40001
1.40001
1.40001
1.40001
1.40001
1.40001
1.40001
1.40001
1.40001
1.40001
1.40001
1.40001
1.40001
1.40001
1.40001
1.40001
1.40001
1.40001
1.40001
1.40001
1.40001
1.40001
1.40001
1.40001
1.40001
1.40001
1.40001
1.40001
1.40001
1.40001
1.40001
1.40001
1.40001
1.40001
1.40001
1.40001
1.40001
1.40001
1.40001
1.40001
1.40001
1.40001
1.40001
1.40001
1.40001
1.40001
1.40001
1.40001
1.40001
1.40001
1.40001
1.40001
1.40001
1.40001
1.40001
1.40001
1.40001
1.40001
1.40001
1.40001
1.40001
1.40001
1.40001
1.40001
1.40001
1.40001
1.40001
1.40001
1.40001
1.40001
1.40001
1.40001
1.40001
1.40001
1.40001
1.40001
1.40001
1.40001
1.40001
1.40001
1.40001
1.40001
1.40001
1.40001
1.40001
1.40001
1.40001
1.40001
1.40001
1.40001
1.40001
1.40001
1.40001
1.40001
1.40001
1.40001
1.40001
1.40001
1.40001
1.40001
1.40001
1.40001
1.40001
1.40001
1.40001
1.40001
1.40001
1.40001
1.40001
1.40001
1.40001
1.40001
1.40001
1.40001
1.40001
1.40001
1.40001
1.40001
1.40001
1.40001
1.40001
1.40001
1.40001
1.40001
1.40001
1.40001
1.40001
1.40001
1.40001
1.40001
1.40001
1.40001
1.40001
1.40001
1.40001
1.40001
1.40001
1.40001
1.40001
1.40001
1.40001
1.40001
1.40001
1.40001
1.40001
1.40001
1.40001
1.40001
1.40001
1.40001
1.40001
1.40001
1.40001
1.40001
1.40001
1.40001
1.40001
1.40001
1.40001
1.40001
1.40001
1.40001
1.40001
1.40001
1.40001
1.40001
1.40001
1.40001
1.40001
1.40001
1.40001
1.40001
1.40001
1.40001
1.40001
1.40001
1.40001
1.40001
1.40001
1.40001
1.40001
1.40001
1.40001
1.40001
1.40001
1.40001
1.40001
1.40001
1.40001
1.40001
1.40001
1.40001
1.40001
1.40001
1.40001
1.40001
1.40001
1.40001
1.40001
1.40001
1.40001
1.40001
1.40001
1.40001
1.40001
1.40001
1.40001
1.40001
1.40001
1.40001
1.40001
1.40001
1.40001
1.40001
1.40001
1.40001
1.40001
1.40001
1.40001
1.40001
1.40001
1.40001
1.40001
1.40001
1.40001
1.40001
1.40001
1.40001
1.40001
1.40001
1.40001
1.40001
1.40001
1.40001
1.40001
1.40001
1.40001
1.40001
1.40001
1.40001
1.40001
1.40001
1.40001
1.40001
1.40001
1.40001
1.40001
1.40001
1.40001
1.40001
1.40001
1.40001
1.40001
1.40001
1.40001
1.40001
1.40001
1.40001
1.40001
1.40001
1.40001
1.40001
1.40001
1.40001
1.40001
1.40001
1.40001
1.40001
1.40001
1.40001
1.40001
1.40001
1.40001
1.40001
1.40001
1.40001
1.40001
1.40001
1.40001
1.40001
1.40001
1.40001
1.40001
1.40001
1.40001
1.40001
1.40001
1.40001
1.40001
1.40001
1.40001
1.40001
1.40001
1.40001
1.40001
1.40001
1.40001
1.40001
1.40001
1.40001
1.40001
1.40001
1.40001
1.40001
1.40001
1.40001
1.40001
1.40001
1.40001
1.40001
1.40001
1.40001
1.40001
1.40001
1.40001
1.40001
1.40001
1.40001
1.40001
1.40001
1.40001
1.40001
1.40001
1.40001
1.40001
1.40001
1.40001
1.40001
1.40001
1.40001
1.40001
1.40001
1.40001
1.40001
1.40001
1.40001
1.40001
1.40001
1.40001
1.40001
1.40001
1.40001
1.40001
1.40001
1.40001
1.40001
1.40001
1.40001
1.40001
1.40001
1.40001
1.40001
1.40001
1.40001
1.40001
1.40001
1.40001
1.40001
1.40001
1.40001
1.40001
1.40001
1.40001
1.40001
1.40001
1.40001
1.40001
1.40001
1.40001
1.40001
1.40001
1.40001
1.40001
1.40001
1.40001
1.40001
1.40001
1.40001
1.40001
1.40001
1.40001
1.40001
1.40001
1.40001
1.40001
1.40001
1.40001
1.40001
1.40001
1.40001
1.40001
1.40001
1.40001
1.40001
1.40001
1.40001
1.40001
1.40001
1.40001
1.40001
1.40001
1.40001
1.40001
1.40001
1.40001
1.40001
1.40001
1.40001
1.40001
1.40001
1.40001
1.40001
1.40001
1.40001
1.40001
1.40001
1.40001
1.40001
1.40001
1.40001
1.40001
1.40001
1.40001
1.40001
1.40001
1.40001
1.40001
1.40001
1.40001
1.40001
1.40001
1.40001
1.40001
1.40001
1.40001
1.40001
1.40001
1.40001
1.40001
1.40001
1.40001
1.40001
1.40001
1.40001
1.40001
1.40001
1.40001
1.40001
1.40001
1.40001
1.40001
1.40001
1.40001
1.40001
1.40001
1.40001
1.40001
1.40001
1.40001
1.40001
1.40001
1.40001
1.40001
1.40001
1.40001
1.40001
1.40001
1.40001
1.40001
1.40001
1.40001
1.40001
1.40001
1.40001
1.40001
1.40001
1.40001
1.40001
1.40001
1.40001
1.40001
1.40001
1.40001
1.40001
1.40001
1.40001
1.40001
1.40001
1.40001
1.40001
1.40001
1.40001
1.40001
1.40001
1.40001
1.40001
1.40001
1.40001
1.40001
1.40001
1.40001
1.40001
1.40001
1.40001
1.40001
1.40001
1.40001
1.40001
1.40001
1.40001
1.40001
1.40001
1.40001
1.40001
1.40001
1.40001
1.40001
1.40001
1.40001
1.40001
1.40001
1.40001
1.40001
1.40001
1.40001
1.40001
1.40001
1.40001
1.40001
1.40001
1.40001
1.40001
1.40001
1.40001
1.40001
1.40001
1.40001
1.40001
1.40001
1.40001
1.40001
1.40001
1.40001
1.40001
1.40001
1.40001
1.40001
1.40001
1.40001
1.40001
1.40001
1.40001
1.40001
1.40001
1.40001
1.40001
1.40001
1.40001
1.40001
1.40001
1.40001
1.40001
1.40001
1.40001
1.40001
1.40001
1.40001
1.40001
1.40001
1.40001
1.40001
1.40001
1.40001
1.40001
1.40001
1.40001
1.40001
1.40001
1.40001
1.40001
1.40001
1.40001
1.40001
1.40001
1.40001
1.40001
1.40001
1.40001
1.40001
1.40001
1.40001
1.40001
1.40001
1.40001
1.40001
1.40001
1.40001
1.40001
1.40001
1.40001
1.40001
1.40001
1.40001
1.40001
1.40001
1.40001
1.40001
1.40001
1.40001
1.40001
1.40001
1.40001
1.40001
1.40001
1.40001
1.40001
1.40001
1.40001
1.40001
1.40001
1.40001
1.40001
1.40001
1.40001
1.40001
1.40001
1.40001
1.40001
1.40001
1.40001
1.40001
1.40001
1.40001
1.40001
1.40001
1.40001
1.40001
1.40001
1.40001
1.40001
1.40001
1.40001
1.40001
1.40001
1.40001
1.40001
1.40001
1.40001
1.40001
1.40001
1.40001
1.40001
1.40001
1.40001
1.40001
1.40001
1.40001
1.40001
1.40001
1.40001
1.40001
1.40001
1.40001
1.40001
1.40001
1.40001
1.40001
1.40001
1.40001
1.40001
1.40001
1.40001
1.40001
1.40001
1.40001
1.40001
1.40001
1.40001
1.40001
1.40001
1.40001
1.40001
1.40001
1.40001
1.40001
1.40001
1.40001
1.40001
1.40001
1.40001
1.40001
1.40001
1.40001
1.40001
1.40001
1.40001
1.40001
1.40001
1.40001
1.40001
1.40001
1.40001
1.40001
1.40001
1.40001
1.40001
1.40001
1.40001
1.40001
1.40001
1.40001
1.40001
1.40001
1.40001
1.40001
1.40001
1.40001
1.40001
1.40001
1.40001
1.40001
1.40001
1.40001
1.40001
1.40001
1.40001
1.40001
1.40001
1.40001
1.40001
1.40001
1.40001
1.40001
1.40001
1.40001
1.40001
1.40001
1.40001
1.40001
1.40001
1.40001
1.40001
1.40001
1.40001
1.40001
1.40001
1.40001
1.40001
1.40001
1.40001
1.40001
1.40001
1.40001
1.40001
1.40001
1.40001
1.40001
1.40001
1.40001
1.40001
1.40001
1.40001
1.40001
1.40001
1.40001
1.40001
1.40001
1.40001
1.40001
1.40001
1.40001
1.40001
1.40001
1.40001
1.40001
1.40001
1.40001
1.40001
1.40001
1.40001
1.40001
1.40001
1.40001
1.40001
1.40001
1.40001
1.40001
1.40001
1.40001
1.40001
1.40001
1.40001
1.40001
1.40001
1.40001
1.40001
1.40001
1.40001
1.40001
1.40001
1.40001
1.40001
1.40001
1.40001
1.40001
1.40001
1.40001
1.40001
1.40001
1.40001
1.40001
1.40001
1.40001
1.40001
1.40001
1.40001
1.40001
1.40001
1.40001
1.40001
1.40001
1.40001
1.40001
1.40001
1.40001
1.40001
1.40001
1.40001
1.40001
1.40001
1.40001
1.40001
1.40001
1.40001
1.40001
1.40001
1.40001
1.40001
1.40001
1.40001
1.40001
1.40001
1.40001
1.40001
1.40001
1.40001
1.40001
1.40001
1.40001
1.40001
1.40001
1.40001
1.40001
1.40001
1.40001
1.40001
1.40001
1.40001
1.40001
1.40001
1.40001
1.40001
1.40001
1.40001
1.40001
1.40001
1.40001
1.40001
1.40001
1.40001
1.40001
1.40001
1.40001
1.40001
1.40001
1.40001
1.40001
1.40001
1.40001
1.40001
1.40001
1.40001
1.40001
1.40001
1.40001
1.40001
1.40001
1.40001
1.40001
1.40001
1.40001
1.40001
1.40001
1.40001
1.40001
1.40001
1.40001
1.40001
1.40001
1.40001
1.40001
1.40001
1.40001
1.40001
1.40001
1.40001
1.40001
1.40001
1.40001
1.40001
1.40001
1.40001
1.40001
1.40001
1.40001
1.40001
1.40001
1.40001
1.40001
1.40001
1.40001
1.40001
1.40001
1.40001
1.40001
1.40001
1.40001
1.40001
1.40001
1.40001
1.40001
1.40001
1.40001
1.40001
1.40001
1.40001
1.40001
1.40001
1.40001
1.40001
1.40001
1.40001
1.40001
1.40001
1.40001
1.40001
1.40001
1.40001
1.40001
1.40001
1.40001
1.40001
1.40001
1.40001
1.40001
1.40001
1.40001
1.40001
1.40001
1.40001
1.40001
1.40001
1.40001
1.40001
1.40001
1.40001
1.40001
1.40001
1.40001
1.40001
1.40001
1.40001
1.40001
1.40001
1.40001
1.40001
1.40001
1.40001
1.40001
1.40001
1.40001
1.40001
1.40001
1.40001
1.40001
1.40001
1.40001
1.40001
1.40001
1.40001
1.40001
1.40001
1.40001
1.40001
1.40001
1.40001
1.40001
1.40001
1.40001
1.40001
1.40001
1.40001
1.40001
1.40001
1.40001
1.40001
1.40001
1.40001
1.40001
1.40001
1.40001
1.40001
1.40001
1.40001
1.40001
1.40001
1.40001
1.40001
1.40001
1.40001
1.40001
1.40001
1.40001
1.40001
1.40001
1.40001
1.40001
1.40001
1.40001
1.40001
1.40001
1.40001
1.40001
1.40001
1.40001
1.40001
1.40001
1.40001
1.40001
1.40001
1.40001
1.40001
1.40001
1.40001
1.40001
1.40001
1.40001
1.40001
1.40001
1.40001
1.40001
1.40001
1.40001
1.40001
1.40001
1.40001
1.40001
1.40001
1.40001
1.40001
1.40001
1.40001
1.40001
1.40001
1.40001
1.40001
1.40001
1.40001
1.40001
1.40001
1.40001
1.40001
1.40001
1.40001
1.40001
1.40001
1.40001
1.40001
1.40001
1.40001
1.40001
1.40001
1.40001
1.40001
1.40001
1.40001
1.40001
1.40001
1.40001
1.40001
1.40001
1.40001
1.40001
1.40001
1.40001
1.40001
1.40001
1.40001
1.40001
1.40001
1.40001
1.40001
1.40001
1.40001
1.40001
1.40001
1.40001
1.40001
1.40001
1.40001
1.40001
1.40001
1.40001
1.40001
1.40001
1.40001
1.40001
1.40001
1.40001
1.40001
1.40001
1.40001
1.40001
1.40001
1.40001
1.40001
1.40001
1.40001
1.40001
1.40001
1.40001
1.40001
1.40001
1.40001
1.40001
1.40001
1.40001
1.40001
1.40001
1.40001
1.40001
1.40001
1.40001
1.40001
1.40001
1.40001
1.40001
1.40001
1.40001
1.40001
1.40001
1.40001
1.40001
1.40001
1.40001
1.40001
1.40001
1.40001
1.40001
1.40001
1.40001
1.40001
1.40001
1.65568
2.03192
2.4332
2.7855
3.17846
3.50379
3.78915
3.96958
4.11006
4.2581
4.25975
4.18188
3.99463
3.74679
3.51077
3.41155
3.34828
3.285
3.24564
3.24696
3.25936
3.28253
3.30185
3.32126
3.33135
3.34037
3.34748
3.35281
3.35516
3.3556
3.35989
3.37591
3.38373
3.38413
3.38355
3.37956
3.37308
3.36854
3.3654
3.36352
3.36165
3.35821
3.35311
3.35025
3.35068
3.35386
3.36106
3.36955
3.37225
3.36875
3.35938
3.34341
3.32125
3.29921
3.27969
3.25746
3.23863
3.23148
3.22921
3.2289
3.23098
3.2324
3.23055
3.2259
3.21634
3.20566
3.20218
3.2006
3.19983
3.19949
3.19959
3.20049
3.20222
3.20442
3.2054
3.20317
3.20076
3.20152
3.21085
3.21534
1.40043
1.40721
1.44178
1.526
1.62393
1.81074
2.04289
2.35077
2.62714
2.94298
3.21755
3.37821
3.43974
3.50342
3.549
3.54841
3.51164
3.4581
3.43378
3.40141
3.365
3.34173
3.30983
3.29879
3.30449
3.31425
3.32185
3.3334
3.34199
3.34355
3.34555
3.35266
3.35742
3.35884
3.35979
3.36095
3.36316
3.36595
3.3693
3.37056
3.36985
3.36674
3.36104
3.35558
3.35421
3.35561
3.35627
3.35452
3.35232
3.34882
3.33982
3.32495
3.30755
3.28905
3.27018
3.25172
3.24068
3.23457
3.23149
3.23069
3.23052
3.22937
3.22603
3.21993
3.20975
3.20122
3.19853
3.1972
3.19626
3.19549
3.19487
3.19469
3.19635
3.19894
3.20043
3.19965
3.19811
3.19901
3.20757
3.21224
1.40001
1.4
1.39997
1.40012
1.40004
1.40205
1.41172
1.45226
1.54439
1.72224
2.04052
2.47895
3.00586
3.32495
3.54733
3.66941
3.65598
3.62109
3.57017
3.51631
3.40782
3.32342
3.29077
3.27515
3.27969
3.29122
3.31073
3.32124
3.32598
3.32529
3.32308
3.31951
3.32128
3.32504
3.32693
3.33002
3.33717
3.34846
3.3583
3.36148
3.36134
3.35978
3.35843
3.357
3.35458
3.35314
3.34997
3.34241
3.3351
3.32816
3.31789
3.30194
3.28434
3.27066
3.25742
3.24378
3.23407
3.22918
3.22612
3.22489
3.22413
3.22308
3.21984
3.21379
3.2048
3.19806
3.19532
3.19343
3.19182
3.19045
3.18978
3.1916
3.19618
3.2004
3.20273
3.20144
3.199
3.19944
3.20762
3.21085
1.40001
1.40001
1.4
1.4
1.4
1.4
1.39999
1.40004
1.4
1.4008
1.41082
1.46959
1.6467
2.04477
2.49145
3.01943
3.22234
3.38024
3.41575
3.39473
3.39959
3.40708
3.40364
3.37484
3.3385
3.32037
3.30703
3.29949
3.29281
3.2864
3.28751
3.29056
3.29688
3.3007
3.30068
3.29922
3.30188
3.31114
3.32295
3.33196
3.33893
3.34497
3.3477
3.34722
3.34442
3.34192
3.33861
3.33334
3.32432
3.3135
3.30164
3.28612
3.26563
3.24928
3.23732
3.22587
3.21993
3.21669
3.21302
3.2102
3.20899
3.20885
3.20695
3.20175
3.19479
3.19002
3.18779
3.18542
3.18256
3.18073
3.18056
3.18355
3.19014
3.19563
3.19858
3.19747
3.19464
3.19489
3.20349
3.20589
1.40001
1.40001
1.40001
1.40001
1.40001
1.40001
1.4
1.4
1.4
1.4
1.40001
1.39996
1.40041
1.41649
1.48754
1.69439
2.11851
2.55416
3.03044
3.21988
3.39638
3.46262
3.44831
3.43452
3.39906
3.35074
3.27697
3.26979
3.27732
3.27708
3.27608
3.27892
3.28214
3.28411
3.28301
3.27947
3.28221
3.29095
3.29822
3.30174
3.30478
3.31062
3.31662
3.32095
3.32486
3.32667
3.3258
3.322
3.31427
3.30485
3.29298
3.27664
3.25376
3.23356
3.22098
3.21197
3.20639
3.20137
3.1948
3.18924
3.18693
3.18563
3.18536
3.18292
3.18047
3.17877
3.17812
3.1786
3.17642
3.17336
3.1718
3.17286
3.17882
3.18732
3.19142
3.18959
3.1864
3.18629
3.19517
3.1976
1.40001
1.40001
1.40001
1.40001
1.40001
1.40001
1.40001
1.40001
1.40001
1.4
1.4
1.4
1.4
1.40001
1.39999
1.40119
1.4273
1.51328
1.7618
2.20649
2.65003
3.08291
3.18211
3.28886
3.29283
3.27668
3.291
3.3067
3.32003
3.3155
3.30868
3.30377
3.29731
3.28553
3.27506
3.27163
3.27481
3.28369
3.29239
3.29311
3.28739
3.28386
3.28508
3.29045
3.3006
3.31083
3.3138
3.31228
3.30838
3.30115
3.28941
3.27186
3.24783
3.22646
3.21507
3.20803
3.20175
3.19325
3.18184
3.17367
3.16945
3.16575
3.16283
3.16143
3.16219
3.16489
3.16864
3.17206
3.173
3.17055
3.16737
3.16551
3.16805
3.17752
3.18826
3.19001
3.18683
3.18553
3.1909
3.18977
1.40001
1.40001
1.40001
1.40001
1.40001
1.40001
1.40001
1.40001
1.40001
1.40001
1.40001
1.40001
1.4
1.4
1.4
1.4
1.4
1.40008
1.40315
1.44534
1.56066
1.86731
2.31878
2.77455
3.12179
3.2347
3.33364
3.3571
3.35265
3.33957
3.31982
3.3044
3.29205
3.28202
3.28256
3.29318
3.30734
3.31199
3.30771
3.29026
3.2735
3.26745
3.27039
3.27808
3.28798
3.29851
3.30447
3.30349
3.3013
3.2966
3.28661
3.26947
3.24585
3.22451
3.21307
3.20539
3.19612
3.18433
3.17376
3.16669
3.16208
3.15878
3.15495
3.15182
3.15062
3.15238
3.15869
3.16592
3.17138
3.17448
3.17204
3.16873
3.16671
3.1692
3.18088
3.1882
3.18575
3.18381
3.18763
3.18428
1.40001
1.40001
1.40001
1.40001
1.40001
1.40001
1.40001
1.40001
1.40001
1.40001
1.40001
1.40001
1.40001
1.40001
1.40001
1.40001
1.4
1.4
1.40001
1.40001
1.40038
1.40837
1.47416
1.62214
1.9972
2.45138
2.91659
3.12779
3.21478
3.24733
3.23926
3.25372
3.28439
3.29618
3.30635
3.32039
3.32864
3.3272
3.31972
3.31021
3.29477
3.27981
3.28108
3.28779
3.29387
3.30017
3.30124
3.2965
3.28914
3.28395
3.27567
3.26093
3.23955
3.21697
3.20398
3.19682
3.18988
3.18394
3.17896
3.17436
3.16948
3.162
3.15404
3.14893
3.14642
3.14611
3.14945
3.15727
3.16641
3.17249
3.17704
3.17418
3.17138
3.17052
3.1766
3.18612
3.18557
3.1826
3.18593
3.18101
1.40001
1.40001
1.40001
1.40001
1.40001
1.40001
1.40001
1.40001
1.40001
1.40001
1.40001
1.40001
1.40001
1.40001
1.40001
1.40001
1.40001
1.40001
1.4
1.4
1.4
1.4
1.40008
1.40116
1.42182
1.51563
1.73964
2.1518
2.60944
3.06265
3.18963
3.27379
3.28899
3.2993
3.2932
3.29009
3.30154
3.32102
3.32388
3.31661
3.31127
3.31291
3.31737
3.32365
3.32388
3.31971
3.31135
3.29938
3.28509
3.27656
3.26735
3.25169
3.23106
3.21007
3.19317
3.18469
3.18127
3.17936
3.17788
3.17527
3.17195
3.16924
3.16676
3.16194
3.15341
3.14807
3.1464
3.14921
3.15612
3.16544
3.17426
3.17882
3.1766
3.17449
3.17657
3.18364
3.1851
3.18501
3.18821
3.17979
1.40001
1.40001
1.40001
1.40001
1.40001
1.40001
1.40001
1.40001
1.40001
1.40001
1.40001
1.40001
1.40001
1.40001
1.40001
1.40001
1.40001
1.40001
1.40001
1.40001
1.4
1.4
1.4
1.40001
1.4
1.4003
1.40435
1.44929
1.57429
1.90583
2.35844
2.85421
3.11843
3.21876
3.22876
3.21858
3.24517
3.29846
3.31261
3.31884
3.32609
3.33038
3.33265
3.33493
3.33777
3.33692
3.3323
3.32278
3.30663
3.29186
3.27803
3.25888
3.23597
3.21413
3.19586
3.18249
3.1764
3.1728
3.17014
3.16968
3.16998
3.1693
3.16977
3.17351
3.17241
3.16565
3.15802
3.15347
3.15147
3.15651
3.16949
3.18137
3.18232
3.17953
3.17772
3.17966
3.18454
3.18883
3.1886
3.17715
1.40001
1.40001
1.40001
1.40001
1.40001
1.40001
1.40001
1.40001
1.40001
1.40001
1.40001
1.40001
1.40001
1.40001
1.40001
1.40001
1.40001
1.40001
1.40001
1.40001
1.40001
1.40001
1.40001
1.40001
1.4
1.4
1.4
1.40005
1.40098
1.41615
1.50039
1.70871
2.12401
2.58486
3.05135
3.17826
3.27991
3.30997
3.30903
3.30389
3.29645
3.29641
3.31531
3.33656
3.33923
3.3382
3.33874
3.33868
3.33411
3.32281
3.30563
3.28215
3.25704
3.23506
3.21493
3.19617
3.18268
3.17446
3.16915
3.16552
3.1627
3.16165
3.16407
3.1718
3.18073
3.18053
3.17405
3.1684
3.16455
3.16206
3.16681
3.18199
3.18893
3.18713
3.18519
3.18476
3.18671
3.19377
3.19561
3.18388
1.40001
1.40001
1.40001
1.40001
1.40001
1.40001
1.40001
1.40001
1.40001
1.40001
1.40001
1.40001
1.40001
1.40001
1.40001
1.40001
1.40001
1.40001
1.40001
1.40001
1.40001
1.40001
1.40001
1.40001
1.40001
1.40001
1.4
1.4
1.40001
1.4
1.40034
1.40437
1.45227
1.58366
1.93677
2.4106
2.89704
3.17037
3.22385
3.26929
3.26029
3.25369
3.28004
3.30713
3.31602
3.32259
3.32959
3.33519
3.33438
3.32674
3.31166
3.29161
3.26982
3.2501
3.23545
3.22331
3.21216
3.19986
3.18359
3.16815
3.16035
3.15726
3.15637
3.16108
3.1776
3.18984
3.188
3.18279
3.17886
3.17587
3.17539
3.18317
3.19397
3.19472
3.19236
3.19059
3.19167
3.19903
3.20034
3.18844
1.40001
1.40001
1.40001
1.40001
1.40001
1.40001
1.40001
1.40001
1.40001
1.40001
1.40001
1.40001
1.40001
1.40001
1.40001
1.40001
1.40001
1.40001
1.40001
1.40001
1.40001
1.40001
1.40001
1.40001
1.40001
1.40001
1.40001
1.40001
1.40001
1.4
1.4
1.4
1.40011
1.40154
1.42293
1.53398
1.78156
2.2412
2.71036
3.12559
3.24629
3.28392
3.31788
3.3006
3.30808
3.31398
3.31125
3.3089
3.30732
3.30349
3.29493
3.282
3.26464
3.24687
3.23578
3.22874
3.2234
3.21954
3.21408
3.20062
3.1801
3.16333
3.15795
3.15837
3.1695
3.18926
3.2002
3.19812
3.1938
3.19037
3.18866
3.19016
3.19859
3.20303
3.20108
3.19833
3.19858
3.20359
3.20327
3.19314
1.40001
1.40001
1.40001
1.40001
1.40001
1.40001
1.40001
1.40001
1.40001
1.40001
1.40001
1.40001
1.40001
1.40001
1.40001
1.40001
1.40001
1.40001
1.40001
1.40001
1.40001
1.40001
1.40001
1.40001
1.40001
1.40001
1.40001
1.40001
1.40001
1.40001
1.4
1.4
1.4
1.4
1.40002
1.40092
1.40901
1.49139
1.69406
2.11591
2.59683
3.03643
3.2601
3.28977
3.33303
3.33941
3.32777
3.3148
3.30046
3.29143
3.28398
3.2716
3.25073
3.22789
3.21604
3.21238
3.21296
3.2161
3.22145
3.22143
3.21436
3.19536
3.17496
3.16869
3.17006
3.18513
3.20709
3.21524
3.21168
3.20487
3.2006
3.19953
3.20078
3.20649
3.20835
3.20622
3.20549
3.20702
3.20567
3.19807
1.40001
1.40001
1.40001
1.40001
1.40001
1.40001
1.40001
1.40001
1.40001
1.40001
1.40001
1.40001
1.40001
1.40001
1.40001
1.40001
1.40001
1.40001
1.40001
1.40001
1.40001
1.40001
1.40001
1.40001
1.40001
1.40001
1.40001
1.40001
1.40001
1.40001
1.40001
1.40001
1.40001
1.4
1.4
1.40001
1.4
1.40055
1.4055
1.4547
1.65535
2.03051
2.51011
2.94429
3.23413
3.33577
3.35097
3.36058
3.35568
3.33271
3.30915
3.29116
3.26432
3.22843
3.20473
3.19472
3.18896
3.18868
3.20398
3.22518
3.22766
3.22213
3.20828
3.19156
3.18631
3.18813
3.20316
3.21987
3.22194
3.21686
3.20833
3.20408
3.20344
3.20623
3.21195
3.21265
3.21181
3.21006
3.20775
3.20261
1.40001
1.40001
1.40001
1.40001
1.40001
1.40001
1.40001
1.40001
1.40001
1.40001
1.40001
1.40001
1.40001
1.40001
1.40001
1.40001
1.40001
1.40001
1.40001
1.40001
1.40001
1.40001
1.40001
1.40001
1.40001
1.40001
1.40001
1.40001
1.40001
1.40001
1.40001
1.40001
1.40001
1.40001
1.40001
1.40001
1.4
1.40001
1.4
1.40024
1.40463
1.43738
1.62165
1.97561
2.47584
2.90213
3.19198
3.31179
3.35073
3.35321
3.3413
3.33132
3.31568
3.28464
3.24581
3.20393
3.18071
3.17518
3.17708
3.19328
3.21976
3.23451
3.23339
3.22225
3.20637
3.20123
3.20207
3.21349
3.22376
3.22328
3.21631
3.20708
3.20474
3.20554
3.21132
3.21747
3.21725
3.21381
3.21093
3.20745
1.40001
1.40001
1.40001
1.40001
1.40001
1.40001
1.40001
1.40001
1.40001
1.40001
1.40001
1.40001
1.40001
1.40001
1.40001
1.40001
1.40001
1.40001
1.40001
1.40001
1.40001
1.40001
1.40001
1.40001
1.40001
1.40001
1.40001
1.40001
1.40001
1.40001
1.40001
1.40001
1.40001
1.40001
1.40001
1.40001
1.40001
1.40001
1.4
1.4
1.4
1.40011
1.40407
1.42968
1.59907
1.99507
2.51201
2.87806
3.14128
3.28128
3.31043
3.31294
3.31039
3.30073
3.2808
3.25749
3.23052
3.19503
3.17534
3.17473
3.18823
3.21919
3.23655
3.23546
3.22331
3.20677
3.20286
3.20536
3.21783
3.22422
3.22257
3.21425
3.20548
3.20443
3.20813
3.21638
3.22096
3.21914
3.21435
3.21072
1.40001
1.40001
1.40001
1.40001
1.40001
1.40001
1.40001
1.40001
1.40001
1.40001
1.40001
1.40001
1.40001
1.40001
1.40001
1.40001
1.40001
1.40001
1.40001
1.40001
1.40001
1.40001
1.40001
1.40001
1.40001
1.40001
1.40001
1.40001
1.40001
1.40001
1.40001
1.40001
1.40001
1.40001
1.40001
1.40001
1.40001
1.40001
1.40001
1.4
1.4
1.4
1.4
1.40008
1.40412
1.43461
1.59565
2.01314
2.58316
2.94516
3.11177
3.18564
3.22465
3.24748
3.25924
3.26768
3.26593
3.25011
3.21672
3.17942
3.17454
3.18847
3.22592
3.24242
3.23659
3.21777
3.20154
3.20032
3.20513
3.21896
3.22436
3.22217
3.21233
3.20474
3.20546
3.21247
3.21991
3.2213
3.21908
3.21382
1.40001
1.40001
1.40001
1.40001
1.40001
1.40001
1.40001
1.40001
1.40001
1.40001
1.40001
1.40001
1.40001
1.40001
1.40001
1.40001
1.40001
1.40001
1.40001
1.40001
1.40001
1.40001
1.40001
1.40001
1.40001
1.40001
1.40001
1.40001
1.40001
1.40001
1.40001
1.40001
1.40001
1.40001
1.40001
1.40001
1.40001
1.40001
1.40001
1.40001
1.40001
1.4
1.4
1.4
1.4
1.40011
1.40434
1.44454
1.61891
2.05912
2.64635
3.02874
3.10699
3.11711
3.14223
3.21741
3.26074
3.2702
3.2604
3.21817
3.17844
3.17772
3.20307
3.23669
3.24408
3.2372
3.21303
3.19508
3.19415
3.20366
3.22133
3.22614
3.22197
3.20978
3.20446
3.20668
3.21493
3.22158
3.2236
3.21944
1.40001
1.40001
1.40001
1.40001
1.40001
1.40001
1.40001
1.40001
1.40001
1.40001
1.40001
1.40001
1.40001
1.40001
1.40001
1.40001
1.40001
1.40001
1.40001
1.40001
1.40001
1.40001
1.40001
1.40001
1.40001
1.40001
1.40001
1.40001
1.40001
1.40001
1.40001
1.40001
1.40001
1.40001
1.40001
1.40001
1.40001
1.40001
1.40001
1.40001
1.40001
1.40001
1.40001
1.4
1.4
1.4
1.4
1.40021
1.40544
1.45932
1.67541
2.13207
2.70606
3.01488
3.06063
3.09561
3.19039
3.25616
3.25974
3.25247
3.20721
3.17829
3.18297
3.21239
3.2399
3.24132
3.23102
3.19967
3.18385
3.18693
3.20663
3.22402
3.2265
3.22207
3.20925
3.20407
3.20747
3.21825
3.22312
3.22097
1.40001
1.40001
1.40001
1.40001
1.40001
1.40001
1.40001
1.40001
1.40001
1.40001
1.40001
1.40001
1.40001
1.40001
1.40001
1.40001
1.40001
1.40001
1.40001
1.40001
1.40001
1.40001
1.40001
1.40001
1.40001
1.40001
1.40001
1.40001
1.40001
1.40001
1.40001
1.40001
1.40001
1.40001
1.40001
1.40001
1.40001
1.40001
1.40001
1.40001
1.40001
1.40001
1.40001
1.40001
1.40001
1.4
1.4
1.4
1.40001
1.40044
1.40949
1.47725
1.72095
2.18089
2.70703
2.93387
3.03149
3.13863
3.23947
3.24881
3.24571
3.2045
3.17
3.17135
3.20402
3.23667
3.23769
3.22298
3.19074
3.1817
3.1872
3.20831
3.22463
3.22662
3.22216
3.20913
3.20482
3.20803
3.21738
3.21988
1.40001
1.40001
1.40001
1.40001
1.40001
1.40001
1.40001
1.40001
1.40001
1.40001
1.40001
1.40001
1.40001
1.40001
1.40001
1.40001
1.40001
1.40001
1.40001
1.40001
1.40001
1.40001
1.40001
1.40001
1.40001
1.40001
1.40001
1.40001
1.40001
1.40001
1.40001
1.40001
1.40001
1.40001
1.40001
1.40001
1.40001
1.40001
1.40001
1.40001
1.40001
1.40001
1.40001
1.40001
1.40001
1.40001
1.40001
1.4
1.4
1.4
1.40002
1.40074
1.41329
1.49016
1.74486
2.21398
2.6449
2.88587
3.06921
3.21602
3.23976
3.23455
3.17772
3.13877
3.15223
3.20473
3.23533
3.23638
3.2235
3.18876
3.17645
3.1826
3.20728
3.22406
3.22493
3.22142
3.20778
3.20255
3.20609
3.2155
1.40001
1.40001
1.40001
1.40001
1.40001
1.40001
1.40001
1.40001
1.40001
1.40001
1.40001
1.40001
1.40001
1.40001
1.40001
1.40001
1.40001
1.40001
1.40001
1.40001
1.40001
1.40001
1.40001
1.40001
1.40001
1.40001
1.40001
1.40001
1.40001
1.40001
1.40001
1.40001
1.40001
1.40001
1.40001
1.40001
1.40001
1.40001
1.40001
1.40001
1.40001
1.40001
1.40001
1.40001
1.40001
1.40001
1.40001
1.40001
1.40001
1.4
1.4
1.4
1.40003
1.4011
1.41577
1.4952
1.76497
2.20533
2.59284
2.8767
3.11509
3.21079
3.20799
3.16379
3.1303
3.14817
3.20504
3.23325
3.23396
3.22067
3.18435
3.17289
3.18006
3.20402
3.22174
3.22144
3.21749
3.20745
3.20307
3.20777
1.40001
1.40001
1.40001
1.40001
1.40001
1.40001
1.40001
1.40001
1.40001
1.40001
1.40001
1.40001
1.40001
1.40001
1.40001
1.40001
1.40001
1.40001
1.40001
1.40001
1.40001
1.40001
1.40001
1.40001
1.40001
1.40001
1.40001
1.40001
1.40001
1.40001
1.40001
1.40001
1.40001
1.40001
1.40001
1.40001
1.40001
1.40001
1.40001
1.40001
1.40001
1.40001
1.40001
1.40001
1.40001
1.40001
1.40001
1.40001
1.40001
1.40001
1.40001
1.4
1.4
1.4
1.40005
1.40132
1.41808
1.49821
1.75722
2.1754
2.57351
2.89925
3.14846
3.17832
3.15465
3.11734
3.12862
3.19164
3.22958
3.2305
3.22073
3.18982
3.17391
3.17808
3.19387
3.21248
3.21831
3.21899
3.21316
3.20588
1.40001
1.40001
1.40001
1.40001
1.40001
1.40001
1.40001
1.40001
1.40001
1.40001
1.40001
1.40001
1.40001
1.40001
1.40001
1.40001
1.40001
1.40001
1.40001
1.40001
1.40001
1.40001
1.40001
1.40001
1.40001
1.40001
1.40001
1.40001
1.40001
1.40001
1.40001
1.40001
1.40001
1.40001
1.40001
1.40001
1.40001
1.40001
1.40001
1.40001
1.40001
1.40001
1.40001
1.40001
1.40001
1.40001
1.40001
1.40001
1.40001
1.40001
1.40001
1.40001
1.40001
1.4
1.4
1.4
1.40006
1.40147
1.41632
1.50099
1.75497
2.14227
2.58413
2.96504
3.13767
3.13616
3.09843
3.10907
3.16861
3.22132
3.22668
3.22384
3.20295
3.17886
3.17547
3.18224
3.20123
3.21606
3.21979
3.21621
1.40001
1.40001
1.40001
1.40001
1.40001
1.40001
1.40001
1.40001
1.40001
1.40001
1.40001
1.40001
1.40001
1.40001
1.40001
1.40001
1.40001
1.40001
1.40001
1.40001
1.40001
1.40001
1.40001
1.40001
1.40001
1.40001
1.40001
1.40001
1.40001
1.40001
1.40001
1.40001
1.40001
1.40001
1.40001
1.40001
1.40001
1.40001
1.40001
1.40001
1.40001
1.40001
1.40001
1.40001
1.40001
1.40001
1.40001
1.40001
1.40001
1.40001
1.40001
1.40001
1.40001
1.40001
1.40001
1.4
1.4
1.4
1.40006
1.40166
1.41574
1.50253
1.7603
2.17572
2.63567
2.99232
3.114
3.09234
3.09515
3.13297
3.19837
3.22049
3.22322
3.21792
3.19343
3.17339
3.17489
3.18836
3.21261
3.22071
1.40001
1.40001
1.40001
1.40001
1.40001
1.40001
1.40001
1.40001
1.40001
1.40001
1.40001
1.40001
1.40001
1.40001