/*--------------------------------*- C++ -*----------------------------------*\
| =========                 |                                                 |
| \\      /  F ield         | OpenFOAM: The Open Source CFD Toolbox           |
|  \\    /   O peration     | Version:  2206                                  |
|   \\  /    A nd           | Website:  www.openfoam.com                      |
|    \\/     M anipulation  |                                                 |
\*---------------------------------------------------------------------------*/
FoamFile
{
    version     2.0;
    format      ascii;
    arch        "LSB;label=32;scalar=64";
    class       volVectorField;
    location    "0.08";
    object      U;
}
// * * * * * * * * * * * * * * * * * * * * * * * * * * * * * * * * * * * * * //

dimensions      [0 1 -1 0 0 0 0];

internalField   nonuniform List<vector> 
4800
(
(4.0101 9.0549e-15 0)
(4.0101 7.9147e-15 0)
(4.0101 8.05472e-15 0)
(4.0101 -4.23406e-15 0)
(4.0101 6.9312e-15 0)
(4.0101 4.8425e-14 0)
(4.0101 4.26907e-14 0)
(4.0101 2.57211e-14 0)
(4.0101 2.74214e-14 0)
(4.0101 4.0637e-14 0)
(4.0101 -1.91e-14 0)
(4.0101 -4.73815e-14 0)
(4.0101 -1.22554e-14 0)
(4.0101 1.76264e-14 0)
(4.0101 2.1517e-14 0)
(4.0101 -5.33759e-15 0)
(4.0101 -5.82867e-14 0)
(4.0101 -4.71415e-14 0)
(4.0101 -5.31125e-14 0)
(4.0101 -2.89483e-14 0)
(4.0101 -3.61729e-15 0)
(4.0101 -5.5943e-15 0)
(4.0101 5.18723e-14 0)
(4.0101 7.30126e-16 0)
(4.0101 -1.11923e-13 0)
(4.0101 -1.35867e-13 0)
(4.0101 -9.81703e-14 0)
(4.0101 -1.40024e-14 0)
(4.0101 5.21423e-15 0)
(4.0101 -1.1842e-14 0)
(4.0101 -5.80434e-15 0)
(4.0101 6.36043e-14 0)
(4.0101 7.05622e-14 0)
(4.0101 1.54327e-14 0)
(4.0101 -2.91517e-14 0)
(4.0101 -3.82099e-14 0)
(4.0101 -6.49846e-14 0)
(4.0101 -1.11136e-13 0)
(4.0101 -1.17297e-13 0)
(4.0101 -8.55948e-14 0)
(4.0101 3.99602e-14 0)
(4.0101 3.93635e-14 0)
(4.0101 5.79767e-15 0)
(4.0101 1.02384e-14 0)
(4.0101 7.61065e-14 0)
(4.0101 2.03542e-13 0)
(4.0101 2.09733e-13 0)
(4.0101 1.19817e-13 0)
(4.0101 6.23874e-14 0)
(4.0101 -1.04418e-14 0)
(4.0101 -5.32659e-14 0)
(4.0101 -7.64032e-14 0)
(4.0101 2.47243e-14 0)
(4.0101 4.57946e-14 0)
(4.0101 2.1367e-14 0)
(4.0101 -2.37041e-14 0)
(4.0101 -4.01503e-14 0)
(4.0101 -8.00138e-15 0)
(4.0101 -5.65764e-15 0)
(4.0101 -5.89935e-14 0)
(4.0101 -8.15641e-14 0)
(4.0101 -8.24842e-14 0)
(4.0101 -1.07189e-13 0)
(4.0101 -1.77751e-13 0)
(4.0101 -3.1028e-13 0)
(4.0101 -3.4495e-13 0)
(4.0101 -2.22908e-13 0)
(4.0101 -4.72082e-14 0)
(4.0101 -3.09753e-14 0)
(4.0101 -2.96551e-14 0)
(4.0101 1.92533e-14 0)
(4.0101 1.27755e-13 0)
(4.0101 8.15708e-14 0)
(4.0101 5.90635e-14 0)
(4.0101 1.80665e-14 0)
(4.0101 -4.37576e-14 0)
(4.0101 -9.63066e-14 0)
(4.0101 -2.14214e-13 0)
(4.0101 -2.62795e-13 0)
(4.0101 -1.98473e-13 0)
(4.0101 4.02536e-14 0)
(4.0101 7.63232e-14 0)
(4.0101 9.45397e-14 0)
(4.0101 1.41681e-13 0)
(4.0101 1.86376e-13 0)
(4.0101 1.45065e-13 0)
(4.0101 1.59828e-13 0)
(4.0101 1.3385e-13 0)
(4.0101 6.20274e-14 0)
(4.0101 4.58946e-14 0)
(4.0101 5.74633e-14 0)
(4.0101 8.4778e-14 0)
(4.0101 9.31761e-14 0)
(4.0101 1.08069e-13 0)
(4.0101 1.12359e-13 0)
(4.0101 1.29296e-13 0)
(4.0101 1.58131e-13 0)
(4.0101 1.19237e-13 0)
(4.0101 5.64164e-14 0)
(4.0101 -8.88287e-14 0)
(4.0101 -1.5505e-13 0)
(4.0101 -1.3504e-13 0)
(4.0101 -1.09839e-13 0)
(4.0101 -1.35817e-13 0)
(4.0101 -1.40561e-13 0)
(4.0101 -1.05555e-13 0)
(4.0101 -4.89818e-14 0)
(4.0101 -4.44543e-14 0)
(4.0101 -6.28342e-14 0)
(4.0101 -5.40493e-14 0)
(4.0101 -3.20255e-14 0)
(4.0101 1.09086e-14 0)
(4.0101 6.02471e-14 0)
(4.0101 8.00905e-14 0)
(4.0101 1.22855e-14 0)
(4.0101 -3.37525e-14 0)
(4.0101 -7.03388e-14 0)
(4.0101 -9.12624e-14 0)
(4.0101 -1.81771e-13 0)
(4.0101 -1.76133e-13 0)
(4.0101 9.56832e-16 0)
(4.0101 7.67199e-14 0)
(4.0101 1.32956e-13 0)
(4.0101 1.1321e-13 0)
(4.0101 5.48628e-14 0)
(4.0101 -1.68262e-14 0)
(4.0101 -3.0982e-14 0)
(4.0101 -9.59166e-15 0)
(4.0101 4.28741e-15 0)
(4.0101 5.11255e-14 0)
(4.0101 1.04418e-13 0)
(4.0101 1.11766e-13 0)
(4.0101 5.9617e-14 0)
(4.0101 1.43325e-14 0)
(4.0101 4.72948e-14 0)
(4.0101 8.28076e-14 0)
(4.0101 1.21881e-13 0)
(4.0101 5.08788e-14 0)
(4.0101 3.59829e-14 0)
(4.0101 7.81835e-14 0)
(4.0101 4.92052e-14 0)
(4.0101 4.24607e-14 0)
(4.0101 1.21188e-14 0)
(4.0101 -6.51713e-14 0)
(4.0101 -7.74867e-14 0)
(4.0101 -7.86302e-14 0)
(4.0101 -1.53587e-13 0)
(4.0101 -2.22368e-13 0)
(4.0101 -1.96851e-13 0)
(4.0101 -9.13058e-14 0)
(4.0101 -5.28625e-14 0)
(4.0101 -7.30193e-14 0)
(4.0101 -6.16306e-14 0)
(4.0101 -7.15557e-14 0)
(4.0101 -1.18317e-13 0)
(4.0101 -1.23675e-13 0)
(4.0101 -1.10179e-13 0)
(4.0101 -9.16792e-14 0)
(4.0101 -1.02231e-13 0)
(4.0101 -1.09682e-13 0)
(4.0101 -1.54427e-14 0)
(4.0101 -3.80499e-14 0)
(4.0101 -5.43927e-14 0)
(4.0101 -7.89003e-14 0)
(4.0101 -6.09972e-14 0)
(4.0101 -4.67914e-14 0)
(4.0101 -2.81215e-14 0)
(4.0101 -8.77718e-14 0)
(4.0101 -7.39194e-14 0)
(4.0101 -5.4266e-14 0)
(4.0101 -2.51043e-15 0)
(4.0101 1.12186e-14 0)
(4.0101 4.53178e-14 0)
(4.0101 7.19758e-14 0)
(4.0101 8.42279e-14 0)
(4.0101 1.12913e-13 0)
(4.0101 1.3527e-13 0)
(4.0101 7.38328e-14 0)
(4.0101 7.61331e-14 0)
(4.0101 1.00204e-13 0)
(4.0101 6.24508e-14 0)
(4.0101 4.24373e-14 0)
(4.0101 -2.25772e-14 0)
(4.0101 -1.21734e-13 0)
(4.0101 -1.65892e-13 0)
(4.0101 -2.02285e-13 0)
(4.0101 -2.19928e-13 0)
(4.0101 -1.27719e-13 0)
(4.0101 -1.21238e-13 0)
(4.0101 -6.08605e-14 0)
(4.0101 -2.82682e-14 0)
(4.0101 -1.16237e-13 0)
(4.0101 -2.15427e-13 0)
(4.0101 -2.43352e-13 0)
(4.0101 -2.38731e-13 0)
(4.0101 -2.72427e-13 0)
(4.0101 -2.49406e-13 0)
(4.0101 -2.15374e-13 0)
(4.0101 -1.97041e-13 0)
(4.0101 -2.0812e-13 0)
(4.0101 -3.6673e-17 0)
(4.0101 -4.95286e-14 0)
(4.0101 -4.6518e-14 0)
(4.0101 -6.02104e-15 0)
(4.0101 2.54511e-14 0)
(4.0101 3.19522e-14 0)
(4.0101 -5.24491e-14 0)
(4.0101 -6.16973e-14 0)
(4.0101 -2.58511e-14 0)
(4.0101 4.12538e-14 0)
(4.0101 5.0162e-14 0)
(4.0101 3.48494e-14 0)
(4.0101 5.1939e-14 0)
(4.0101 1.30139e-13 0)
(4.0101 9.85437e-14 0)
(4.0101 9.58699e-14 0)
(4.0101 6.72516e-14 0)
(4.0101 2.96785e-14 0)
(4.0101 -5.02653e-14 0)
(4.0101 -1.19104e-13 0)
(4.0101 -4.44477e-14 0)
(4.0101 -3.93768e-14 0)
(4.0101 -1.83032e-14 0)
(4.0101 8.63983e-14 0)
(4.0101 5.94536e-14 0)
(4.0101 5.87335e-14 0)
(4.0101 2.40942e-14 0)
(4.0101 -2.64746e-14 0)
(4.0101 -1.40501e-13 0)
(4.0101 -1.40408e-13 0)
(4.0101 -1.23258e-13 0)
(4.0101 -1.33083e-13 0)
(4.0101 -2.07202e-13 0)
(4.0101 -2.24615e-13 0)
(4.0101 -2.29096e-13 0)
(4.0101 -2.42442e-13 0)
(4.0101 -1.87606e-13 0)
(4.0101 -6.1724e-14 0)
(4.0101 -3.72564e-14 0)
(4.0101 -8.63973e-14 0)
(4.0101 2.15571e-14 0)
(4.0101 2.83982e-14 0)
(4.0101 5.23124e-14 0)
(4.0101 6.24508e-14 0)
(4.0101 4.46877e-14 0)
(4.0101 -4.44277e-14 0)
(4.0101 -7.77301e-14 0)
(4.0101 -1.57694e-14 0)
(4.0101 9.65833e-15 0)
(4.0101 1.43525e-14 0)
(4.0101 -6.47779e-15 0)
(4.0101 -6.31509e-14 0)
(4.0101 -8.86153e-14 0)
(4.0101 -8.73784e-14 0)
(4.0101 -9.43363e-14 0)
(4.0101 -1.04428e-13 0)
(4.0101 -1.07615e-13 0)
(4.0101 -1.31039e-13 0)
(4.0101 -1.33313e-13 0)
(4.0101 -5.45561e-14 0)
(4.0101 -1.76297e-14 0)
(4.0101 1.62661e-14 0)
(4.0101 7.56497e-14 0)
(4.0101 1.12559e-13 0)
(4.0101 1.02591e-13 0)
(4.0101 5.30258e-14 0)
(4.0101 2.5011e-14 0)
(4.0101 1.38591e-14 0)
(4.0101 8.21142e-15 0)
(4.0101 -5.43094e-15 0)
(4.0101 -4.09404e-14 0)
(4.0101 -1.7353e-13 0)
(4.0101 -1.59344e-13 0)
(4.0101 -1.1731e-13 0)
(4.0101 -7.55797e-14 0)
(4.0101 -3.841e-14 0)
(4.0101 -1.03451e-14 0)
(4.0101 1.00447e-13 0)
(4.0101 1.47839e-13 0)
(4.0101 1.22706e-13 0)
(4.0101 -3.57728e-15 0)
(4.0101 -6.44445e-15 0)
(4.0101 -9.4383e-15 0)
(4.0101 -8.54481e-15 0)
(4.0101 -4.29407e-15 0)
(4.0101 -3.74298e-14 0)
(4.0101 -4.26374e-14 0)
(4.0101 -2.85216e-14 0)
(4.0101 -6.7765e-14 0)
(4.0101 -1.29812e-13 0)
(4.0101 -1.42201e-13 0)
(4.0101 -1.29779e-13 0)
(4.0101 -1.31886e-13 0)
(4.0101 -2.13624e-13 0)
(4.0101 -3.0923e-13 0)
(4.0101 -2.93414e-13 0)
(4.0101 -1.78971e-13 0)
(4.0101 -1.80655e-13 0)
(4.0101 -1.22628e-13 0)
(4.0101 -8.48813e-14 0)
(4.0101 -8.92654e-14 0)
(4.0101 1.93333e-14 0)
(4.0101 6.5428e-14 0)
(4.0101 6.73383e-14 0)
(4.0101 1.1352e-13 0)
(4.0101 1.18294e-13 0)
(4.0101 9.58432e-14 0)
(4.0101 8.00272e-14 0)
(4.0101 1.12363e-13 0)
(4.0101 1.54417e-13 0)
(4.0101 1.11503e-13 0)
(4.0101 -4.10838e-14 0)
(4.0101 -1.22328e-13 0)
(4.0101 -1.08489e-13 0)
(4.0101 -6.5778e-15 0)
(4.0101 6.30376e-14 0)
(4.0101 7.13523e-14 0)
(4.0101 5.46628e-14 0)
(4.0101 1.16293e-13 0)
(4.0101 1.26493e-13 0)
(4.0101 -2.03535e-14 0)
(4.0101 -5.28891e-14 0)
(4.0101 -4.58946e-14 0)
(4.0101 -1.73363e-15 0)
(4.0101 1.41591e-14 0)
(4.0101 2.32874e-14 0)
(4.0101 -1.85365e-15 0)
(4.0101 -4.42243e-14 0)
(4.0101 -8.03705e-14 0)
(4.0101 -7.50363e-14 0)
(4.0101 -3.60729e-14 0)
(4.0101 -6.06105e-15 0)
(4.0101 -5.09421e-15 0)
(4.0101 -4.23973e-14 0)
(4.0101 -2.30907e-14 0)
(4.0101 -6.1814e-14 0)
(4.0101 -1.50713e-13 0)
(4.0101 -1.05011e-13 0)
(4.0101 -9.56365e-14 0)
(4.0101 -9.2416e-14 0)
(4.0101 -6.81151e-14 0)
(4.0101 -7.87903e-14 0)
(4.0101 -2.22005e-14 0)
(4.0101 -1.7143e-14 0)
(4.0101 -3.68997e-14 0)
(4.0101 3.42626e-14 0)
(4.0101 5.15056e-14 0)
(4.0101 8.02305e-14 0)
(4.0101 6.78484e-14 0)
(4.0101 4.20106e-14 0)
(4.0101 2.03402e-14 0)
(4.0101 -7.40795e-15 0)
(4.0101 -7.87203e-14 0)
(4.0101 -1.22014e-13 0)
(4.0101 -8.05939e-14 0)
(4.0101 -2.36941e-14 0)
(4.0101 6.16973e-14 0)
(4.0101 1.73363e-13 0)
(4.0101 2.09963e-13 0)
(4.0101 9.17584e-14 0)
(4.0101 3.89401e-15 0)
(4.0101 -2.25206e-14 0)
(4.0101 -2.1057e-14 0)
(4.0101 -2.99785e-14 0)
(4.0101 -6.23041e-14 0)
(4.0101 -6.09172e-14 0)
(4.0101 1.48492e-14 0)
(4.0101 -1.73397e-14 0)
(4.0101 -7.93304e-14 0)
(4.0101 -7.04988e-14 0)
(4.0101 -2.1517e-14 0)
(4.0101 1.03918e-14 0)
(4.0101 2.66713e-17 0)
(4.0101 9.2616e-15 0)
(4.0101 5.00086e-17 0)
(4.0101 3.4736e-14 0)
(4.0101 1.98034e-14 0)
(4.0101 3.22656e-14 0)
(4.0101 -8.92888e-14 0)
(4.0101 -1.20201e-13 0)
(4.0101 -1.23198e-13 0)
(4.0101 -1.20191e-13 0)
(4.0101 -1.00557e-13 0)
(4.0101 -1.44022e-13 0)
(4.0101 -1.9404e-13 0)
(4.0101 -1.85562e-13 0)
(4.0101 -1.19507e-13 0)
(4.0101 -4.27674e-14 0)
(4.0101 4.20406e-15 0)
(4.0101 -3.02786e-14 0)
(4.0101 -4.8365e-14 0)
(4.0101 -4.79483e-14 0)
(4.0101 -9.00155e-14 0)
(4.0101 -1.42415e-13 0)
(4.0101 -1.1347e-13 0)
(4.0101 -4.99653e-14 0)
(4.0101 -3.91168e-14 0)
(4.0101 6.99354e-14 0)
(4.0101 1.67822e-13 0)
(4.0101 1.59495e-13 0)
(4.0101 -9.25827e-15 0)
(4.0101 -6.87785e-15 0)
(4.0101 -3.99202e-14 0)
(4.0101 -1.18337e-13 0)
(4.0101 -1.28722e-13 0)
(4.0101 -6.13006e-14 0)
(4.0101 -4.56245e-14 0)
(4.0101 -4.04937e-14 0)
(4.0101 -3.2979e-14 0)
(4.0101 -4.6268e-14 0)
(4.0101 -3.42859e-14 0)
(4.0101 -2.36541e-14 0)
(4.0101 -2.45509e-14 0)
(4.0101 -8.82252e-14 0)
(4.0101 -1.41004e-13 0)
(4.0101 -1.516e-13 0)
(4.0101 -1.00507e-13 0)
(4.0101 7.64132e-15 0)
(4.0101 2.64812e-14 0)
(4.0101 6.46545e-14 0)
(4.0101 6.9462e-14 0)
(4.0101 8.3131e-14 0)
(4.0101 4.71548e-14 0)
(4.0101 2.03135e-14 0)
(4.0101 1.49126e-14 0)
(4.0101 2.46543e-14 0)
(4.0101 9.17158e-15 0)
(4.0101 -7.94604e-14 0)
(4.0101 -6.5678e-14 0)
(4.0101 -9.26693e-14 0)
(4.0101 -1.18714e-13 0)
(4.0101 -1.1374e-13 0)
(4.0101 -9.70134e-14 0)
(4.0101 -1.3654e-13 0)
(4.0101 -2.65069e-13 0)
(4.0101 -3.31464e-13 0)
(4.0101 -3.82483e-13 0)
(4.0101 -3.14371e-13 0)
(4.0101 -9.54098e-14 0)
(4.0101 7.60748e-14 0)
(4.0101 -3.865e-14 0)
(4.0101 -4.42376e-14 0)
(4.0101 -2.38575e-14 0)
(4.0101 -2.58911e-14 0)
(4.0101 7.96804e-16 0)
(4.0101 1.87299e-14 0)
(4.0101 3.6433e-14 0)
(4.0101 5.88868e-14 0)
(4.0101 2.84049e-14 0)
(4.0101 -1.03951e-14 0)
(4.0101 -5.15289e-14 0)
(4.0101 -1.98868e-14 0)
(4.0101 -2.04702e-15 0)
(4.0101 -7.90436e-14 0)
(4.0101 -9.32561e-14 0)
(4.0101 -9.87337e-14 0)
(4.0101 -1.29636e-13 0)
(4.0101 -1.64722e-13 0)
(4.0101 -1.24848e-13 0)
(4.0101 -1.87666e-14 0)
(4.0101 2.93917e-14 0)
(4.0101 2.09203e-14 0)
(4.0101 -1.22588e-14 0)
(4.0101 2.96218e-14 0)
(4.0101 5.28025e-14 0)
(4.0101 5.83767e-14 0)
(4.0101 6.96754e-14 0)
(4.0101 4.8235e-14 0)
(4.0101 -4.18306e-14 0)
(4.0101 -1.97968e-14 0)
(4.0101 9.54832e-15 0)
(4.0101 3.12221e-14 0)
(4.0101 4.54712e-14 0)
(4.0101 -6.08105e-15 0)
(4.0101 -1.44895e-13 0)
(4.0101 -2.52084e-13 0)
(4.0101 -2.50913e-13 0)
(4.0101 -2.74404e-13 0)
(4.0101 -2.11813e-13 0)
(4.0101 -1.53981e-13 0)
(4.0101 -1.00717e-14 0)
(4.0101 -2.40875e-14 0)
(4.0101 1.36424e-14 0)
(4.0101 6.32743e-14 0)
(4.0101 5.41627e-14 0)
(4.0101 5.91836e-14 0)
(4.0101 8.54148e-14 0)
(4.0101 8.38712e-14 0)
(4.0101 8.48613e-14 0)
(4.0101 4.15538e-14 0)
(4.0101 4.64414e-14 0)
(4.0101 5.91702e-14 0)
(4.0101 9.51131e-14 0)
(4.0101 1.28209e-13 0)
(4.0101 9.50264e-14 0)
(4.0101 2.35674e-14 0)
(4.0101 -5.70632e-14 0)
(4.0101 -8.69317e-14 0)
(4.0101 -3.62263e-14 0)
(4.0101 -2.56011e-14 0)
(4.0101 -1.05051e-14 0)
(4.0101 -5.72466e-14 0)
(4.0101 -6.64281e-14 0)
(4.0101 8.25243e-14 0)
(4.0101 1.83655e-13 0)
(4.0101 1.63612e-13 0)
(4.0101 1.31679e-13 0)
(4.0101 9.38695e-14 0)
(4.0101 1.45098e-13 0)
(4.0101 2.17981e-13 0)
(4.0101 2.58341e-13 0)
(4.0101 2.99882e-13 0)
(4.0101 1.42928e-13 0)
(4.0101 -1.38294e-13 0)
(4.0101 -2.34751e-13 0)
(4.0101 -2.00061e-13 0)
(4.0101 -6.34043e-14 0)
(4.0101 -1.5708e-13 0)
(4.0101 -2.8918e-13 0)
(4.0101 -2.90039e-13 0)
(4.0101 4.60179e-14 0)
(4.0101 5.36226e-14 0)
(4.0101 1.60494e-14 0)
(4.0101 -5.70098e-16 0)
(4.0101 2.65779e-14 0)
(4.0101 7.1579e-14 0)
(4.0101 6.44145e-14 0)
(4.0101 2.37774e-14 0)
(4.0101 6.07572e-14 0)
(4.0101 9.22626e-14 0)
(4.0101 2.9175e-14 0)
(4.0101 -9.14825e-15 0)
(4.0101 1.51526e-14 0)
(4.0101 7.13823e-14 0)
(4.0101 5.27291e-14 0)
(4.0101 3.62163e-14 0)
(4.0101 1.48959e-14 0)
(4.0101 2.44942e-14 0)
(4.0101 2.60012e-14 0)
(4.0101 1.07985e-14 0)
(4.0101 8.01805e-14 0)
(4.0101 9.10391e-14 0)
(4.0101 1.13836e-13 0)
(4.0101 1.70513e-13 0)
(4.0101 2.56144e-13 0)
(4.0101 2.46233e-13 0)
(4.0101 2.02308e-13 0)
(4.0101 7.46662e-14 0)
(4.0101 -1.31356e-15 0)
(4.0101 5.53762e-15 0)
(4.0101 4.91485e-14 0)
(4.0101 7.43028e-14 0)
(4.0101 8.56481e-15 0)
(4.0101 -5.48128e-14 0)
(4.0101 -5.17589e-14 0)
(4.0101 -4.69748e-14 0)
(4.0101 -7.19724e-14 0)
(4.0101 -1.3738e-13 0)
(4.0101 -1.74984e-13 0)
(4.0101 -1.6755e-13 0)
(4.0101 2.58211e-14 0)
(4.0101 6.48379e-14 0)
(4.0101 3.17055e-14 0)
(4.0101 -8.00138e-17 0)
(4.0101 4.68248e-14 0)
(4.0101 8.40012e-14 0)
(4.0101 7.37394e-14 0)
(4.0101 1.61395e-14 0)
(4.0101 -7.27792e-15 0)
(4.0101 -2.77048e-15 0)
(4.0101 1.64362e-15 0)
(4.0101 -5.53429e-15 0)
(4.0101 -1.06652e-14 0)
(4.0101 -5.67498e-14 0)
(4.0101 -7.13223e-14 0)
(4.0101 1.16687e-16 0)
(4.0101 1.05045e-13 0)
(4.0101 1.01214e-13 0)
(4.0101 1.09656e-13 0)
(4.0101 1.22084e-13 0)
(4.0101 1.7347e-13 0)
(4.0101 2.23505e-13 0)
(4.0101 1.58984e-13 0)
(4.0101 1.39051e-13 0)
(4.0101 9.94605e-14 0)
(4.0101 9.12258e-14 0)
(4.0101 6.3821e-14 0)
(4.0101 2.89283e-14 0)
(4.0101 3.50594e-14 0)
(4.0101 5.53962e-14 0)
(4.0101 5.12422e-14 0)
(4.0101 -4.92918e-14 0)
(4.0101 -7.54697e-14 0)
(4.0101 -2.00035e-16 0)
(4.0101 1.09252e-14 0)
(4.0101 -6.66782e-15 0)
(4.0101 -1.01551e-13 0)
(4.0101 -1.40958e-13 0)
(4.0101 -9.18092e-14 0)
(4.0101 -3.63855e-14 0)
(4.0101 -2.5241e-14 0)
(4.0101 -9.32161e-15 0)
(4.0101 2.45109e-14 0)
(4.0101 5.48028e-14 0)
(4.0101 6.33643e-14 0)
(4.0101 3.52661e-14 0)
(4.0101 2.94984e-14 0)
(4.0101 4.71081e-14 0)
(4.0101 1.06418e-14 0)
(4.0101 2.02535e-14 0)
(4.0101 5.11855e-14 0)
(4.0101 5.29925e-14 0)
(4.0101 2.18071e-14 0)
(4.0101 -5.57696e-14 0)
(4.0101 -3.45693e-14 0)
(4.0101 3.86733e-15 0)
(4.0101 1.83765e-14 0)
(4.0101 4.01103e-14 0)
(4.0101 6.04171e-14 0)
(4.0101 1.01511e-13 0)
(4.0101 5.85534e-14 0)
(4.0101 7.73567e-14 0)
(4.0101 9.26427e-14 0)
(4.0101 7.87603e-14 0)
(4.0101 5.30025e-14 0)
(4.0101 1.54027e-14 0)
(4.0101 1.59594e-14 0)
(4.0101 -1.37624e-14 0)
(4.0101 2.48743e-14 0)
(4.0101 9.34128e-14 0)
(4.0101 8.39778e-14 0)
(4.0101 8.16141e-14 0)
(4.0101 7.73234e-14 0)
(4.0101 9.66134e-14 0)
(4.0101 1.44718e-13 0)
(4.0101 1.42301e-13 0)
(4.0101 4.14205e-14 0)
(4.0101 1.26288e-14 0)
(4.0101 1.06362e-13 0)
(4.0101 1.23386e-13 0)
(4.0101 -1.30056e-14 0)
(4.0101 -3.32157e-14 0)
(4.0101 -5.46394e-14 0)
(4.0101 -1.53026e-14 0)
(4.0101 -5.64431e-15 0)
(4.0101 -1.59928e-14 0)
(4.0101 -1.77664e-14 0)
(4.0101 4.48077e-15 0)
(4.0101 4.49878e-14 0)
(4.0101 4.53045e-14 0)
(4.0101 1.80731e-14 0)
(4.0101 2.6738e-14 0)
(4.0101 4.56445e-14 0)
(4.0101 6.84652e-14 0)
(4.0101 9.85937e-14 0)
(4.0101 3.64996e-14 0)
(4.0101 -5.64097e-15 0)
(4.0101 2.07336e-14 0)
(4.0101 -3.20055e-16 0)
(4.0101 4.71081e-15 0)
(4.0101 1.22921e-14 0)
(4.0101 2.42375e-15 0)
(4.0101 1.51193e-14 0)
(4.0101 2.43009e-14 0)
(4.0101 7.21125e-15 0)
(4.0101 -1.80431e-14 0)
(4.0101 -4.43777e-14 0)
(4.0101 -7.57297e-14 0)
(4.0101 -6.75883e-14 0)
(4.0101 -6.76917e-14 0)
(4.0101 -4.64914e-14 0)
(4.0101 7.07922e-14 0)
(4.0101 1.28275e-13 0)
(4.0101 8.73351e-14 0)
(4.0101 1.20738e-13 0)
(4.0101 1.18994e-13 0)
(4.0101 1.00287e-13 0)
(4.0101 1.16577e-13 0)
(4.0101 1.35303e-13 0)
(4.0101 5.3635e-14 0)
(4.0101 -9.36828e-15 0)
(4.0101 -2.06769e-14 0)
(4.0101 -3.30957e-14 0)
(4.0101 -2.23972e-14 0)
(4.0101 -4.60646e-14 0)
(4.0101 -6.28208e-14 0)
(4.0101 -3.75365e-14 0)
(4.0101 -2.37041e-14 0)
(4.0101 2.53444e-14 0)
(4.0101 -1.3569e-15 0)
(4.0101 -1.70229e-14 0)
(4.0101 -4.28574e-14 0)
(4.0101 -6.16773e-16 0)
(4.0101 6.52479e-14 0)
(4.0101 7.73767e-14 0)
(4.0101 5.13722e-14 0)
(4.0101 5.94236e-14 0)
(4.0101 2.96084e-14 0)
(4.0101 -7.08456e-15 0)
(4.0101 -3.95535e-14 0)
(4.0101 -1.12933e-13 0)
(4.0101 -1.39407e-13 0)
(4.0101 -1.61918e-13 0)
(4.0101 -1.41314e-13 0)
(4.0101 -6.04838e-14 0)
(4.0101 3.35791e-14 0)
(4.0101 4.75515e-14 0)
(4.0101 -9.15291e-14 0)
(4.0101 -9.72501e-14 0)
(4.0101 -1.23828e-13 0)
(4.0101 -1.00204e-13 0)
(4.0101 -3.63896e-14 0)
(4.0101 3.30057e-14 0)
(4.0101 1.46565e-13 0)
(4.0101 1.38364e-13 0)
(4.0101 1.00241e-13 0)
(4.0101 1.10972e-13 0)
(4.0101 9.8507e-14 0)
(4.0101 5.61664e-14 0)
(4.0101 -2.47401e-14 0)
(4.0101 2.4871e-15 0)
(4.0101 1.49492e-14 0)
(4.0101 2.13137e-14 0)
(4.0101 6.47445e-15 0)
(4.0101 -3.36058e-15 0)
(4.0101 -4.16205e-14 0)
(4.0101 -6.42411e-14 0)
(4.0101 -5.6163e-14 0)
(4.0101 -3.37525e-14 0)
(4.0101 -2.95718e-14 0)
(4.0101 -3.94968e-14 0)
(4.0101 -1.05268e-13 0)
(4.0101 -1.80251e-13 0)
(4.0101 -1.82368e-13 0)
(4.0101 -1.62801e-13 0)
(4.0101 -3.01019e-14 0)
(4.0101 4.97319e-14 0)
(4.0101 4.09471e-14 0)
(4.0101 -1.47125e-14 0)
(4.0101 -1.67996e-14 0)
(4.0101 -5.5993e-14 0)
(4.0101 -9.39362e-14 0)
(4.0101 -1.22988e-13 0)
(4.0101 -1.36607e-13 0)
(4.0101 -7.58798e-14 0)
(4.0101 -2.86249e-14 0)
(4.0101 -5.05287e-14 0)
(4.0101 -8.08673e-14 0)
(4.0101 -9.50397e-14 0)
(4.0101 -6.24408e-14 0)
(4.0101 -4.78949e-14 0)
(4.0101 -4.21373e-14 0)
(4.0101 -3.07786e-14 0)
(4.0101 1.37744e-13 0)
(4.0101 2.16244e-13 0)
(4.0101 1.64668e-13 0)
(4.0101 1.45375e-13 0)
(4.0101 1.27049e-13 0)
(4.0101 3.91701e-14 0)
(4.0101 -3.10586e-14 0)
(4.0101 3.70931e-14 0)
(4.0101 1.90433e-14 0)
(4.0101 1.17654e-14 0)
(4.0101 -1.85365e-15 0)
(4.0101 -2.04369e-15 0)
(4.0101 2.3164e-14 0)
(4.0101 -6.3611e-15 0)
(4.0101 -3.41726e-14 0)
(4.0101 -2.44142e-14 0)
(4.0101 2.22672e-14 0)
(4.0101 5.52362e-14 0)
(4.0101 -4.38776e-14 0)
(4.0101 -1.43715e-13 0)
(4.0101 -2.5184e-13 0)
(4.0101 -1.50119e-13 0)
(4.0101 -5.09155e-14 0)
(4.0101 -1.28089e-14 0)
(4.0101 4.03136e-14 0)
(4.0101 4.46577e-14 0)
(4.0101 1.3269e-14 0)
(4.0101 -7.78701e-14 0)
(4.0101 -6.40477e-14 0)
(4.0101 -7.1349e-14 0)
(4.0101 -9.77002e-14 0)
(4.0101 -1.06115e-13 0)
(4.0101 -2.04179e-13 0)
(4.0101 -2.01865e-13 0)
(4.0101 -1.81991e-13 0)
(4.0101 -2.03425e-13 0)
(4.0101 -7.53864e-14 0)
(4.0101 -5.21823e-14 0)
(4.0101 -2.89717e-15 0)
(4.0101 5.64164e-14 0)
(4.0101 1.05792e-13 0)
(4.0101 9.28594e-14 0)
(4.0101 7.37927e-14 0)
(4.0101 6.07705e-14 0)
(4.0101 4.80183e-14 0)
(4.0101 9.42696e-14 0)
(4.0101 6.36532e-14 0)
(4.0101 -1.07685e-14 0)
(4.0101 -1.99034e-15 0)
(4.0101 4.00336e-14 0)
(4.0101 4.33575e-14 0)
(4.0101 6.68449e-15 0)
(4.0101 4.71748e-15 0)
(4.0101 1.51526e-14 0)
(4.0101 3.99736e-14 0)
(4.0101 5.59063e-14 0)
(4.0101 8.02172e-14 0)
(4.0101 7.28159e-14 0)
(4.0101 4.98086e-14 0)
(4.0101 1.19621e-14 0)
(4.0101 -1.1762e-14 0)
(4.0101 -2.84949e-14 0)
(4.0101 -5.70599e-14 0)
(4.0101 -7.61031e-14 0)
(4.0101 3.56395e-15 0)
(4.0101 9.75835e-14 0)
(4.0101 1.03548e-13 0)
(4.0101 8.20708e-14 0)
(4.0101 -3.19055e-15 0)
(4.0101 -7.69333e-14 0)
(4.0101 -1.15353e-13 0)
(4.0101 -2.00171e-13 0)
(4.0101 -9.2476e-14 0)
(4.0101 -8.19975e-14 0)
(4.0101 -9.43996e-14 0)
(4.0101 -6.96887e-14 0)
(4.0101 9.15125e-14 0)
(4.0101 1.27272e-13 0)
(4.0101 1.66542e-13 0)
(4.0101 2.10933e-13 0)
(4.0101 2.16234e-13 0)
(4.0101 2.08449e-13 0)
(4.0101 2.46173e-13 0)
(4.0101 2.24625e-13 0)
(4.0101 1.47235e-13 0)
(4.0101 1.7187e-13 0)
(4.0101 1.91377e-13 0)
(4.0101 8.30477e-15 0)
(4.0101 3.43026e-14 0)
(4.0101 4.05737e-14 0)
(4.0101 3.83133e-14 0)
(4.0101 2.37808e-14 0)
(4.0101 7.13457e-16 0)
(4.0101 1.45192e-14 0)
(4.0101 3.2719e-14 0)
(4.0101 -1.58961e-14 0)
(4.0101 -6.65982e-14 0)
(4.0101 -7.33727e-14 0)
(4.0101 -5.84001e-14 0)
(4.0101 -3.18088e-14 0)
(4.0101 2.21272e-14 0)
(4.0101 2.48009e-14 0)
(4.0101 3.93068e-15 0)
(4.0101 -7.21458e-15 0)
(4.0101 7.78334e-14 0)
(4.0101 7.14123e-14 0)
(4.0101 6.71583e-14 0)
(4.0101 1.38921e-13 0)
(4.0101 1.32536e-13 0)
(4.0101 8.31977e-14 0)
(4.0101 3.64063e-14 0)
(4.0101 -3.38825e-14 0)
(4.0101 2.48376e-14 0)
(4.0101 7.5413e-14 0)
(4.0101 8.52481e-14 0)
(4.0101 7.69333e-14 0)
(4.0101 4.80216e-14 0)
(4.0101 5.69532e-14 0)
(4.0101 3.55461e-14 0)
(4.0101 2.61478e-14 0)
(4.0101 7.70566e-14 0)
(4.0101 1.3692e-13 0)
(4.0101 1.78187e-13 0)
(4.0101 1.47449e-13 0)
(4.0101 1.61961e-14 0)
(4.0101 -3.21956e-14 0)
(4.0101 6.8856e-15 0)
(4.0101 1.77897e-14 0)
(4.0101 5.45661e-14 0)
(4.0101 3.53661e-14 0)
(4.0101 6.95787e-15 0)
(4.0101 -5.17423e-15 0)
(4.0101 -4.63413e-16 0)
(4.0101 -1.06518e-14 0)
(4.0101 -3.16688e-14 0)
(4.0101 -5.37826e-14 0)
(4.0101 -6.83085e-14 0)
(4.0101 -1.88756e-13 0)
(4.0101 -2.17201e-13 0)
(4.0101 -3.85433e-14 0)
(4.0101 1.25558e-13 0)
(4.0101 1.28512e-13 0)
(4.0101 1.11586e-13 0)
(4.0101 8.61549e-14 0)
(4.0101 7.88836e-14 0)
(4.0101 2.17571e-14 0)
(4.0101 2.27206e-14 0)
(4.0101 3.18455e-14 0)
(4.0101 1.45152e-13 0)
(4.0101 1.93897e-13 0)
(4.0101 2.00758e-13 0)
(4.0101 2.14864e-13 0)
(4.0101 9.61633e-14 0)
(4.0101 4.24373e-14 0)
(4.0101 5.64597e-14 0)
(4.0101 5.04254e-14 0)
(4.0101 4.32108e-14 0)
(4.0101 1.24021e-15 0)
(4.0101 -6.98154e-14 0)
(4.0101 -6.09605e-14 0)
(4.0101 -4.2714e-14 0)
(4.0101 1.41491e-14 0)
(4.0101 -1.65295e-14 0)
(4.0101 -1.06345e-13 0)
(4.0101 -7.34427e-14 0)
(4.0101 -4.14405e-14 0)
(4.0101 -6.69674e-14 0)
(4.0101 -3.46727e-14 0)
(4.0101 -6.09772e-15 0)
(4.0101 -3.48027e-14 0)
(4.0101 -4.0627e-14 0)
(4.0101 -1.48292e-14 0)
(4.0101 2.21938e-14 0)
(4.0101 -1.06752e-14 0)
(4.0101 -3.46893e-14 0)
(4.0101 -1.1802e-15 0)
(4.0101 1.48426e-14 0)
(4.0101 -1.19721e-14 0)
(4.0101 5.00586e-14 0)
(4.0101 1.08525e-13 0)
(4.0101 1.63755e-13 0)
(4.0101 1.30546e-13 0)
(4.0101 1.54977e-13 0)
(4.0101 1.65312e-13 0)
(4.0101 9.37395e-14 0)
(4.0101 3.58195e-14 0)
(4.0101 3.40659e-14 0)
(4.0101 5.27091e-14 0)
(4.0101 3.95802e-14 0)
(4.0101 3.21055e-14 0)
(4.0101 5.43427e-14 0)
(4.0101 -1.25488e-14 0)
(4.0101 -5.59363e-14 0)
(4.0101 -5.19023e-14 0)
(4.0101 5.0342e-14 0)
(4.0101 6.50712e-14 0)
(4.0101 3.871e-14 0)
(4.0101 -5.38426e-15 0)
(4.0101 -1.90766e-14 0)
(4.0101 -1.01251e-14 0)
(4.0101 -1.28189e-14 0)
(4.0101 -1.98868e-14 0)
(4.0101 1.39224e-14 0)
(4.0101 -4.78583e-14 0)
(4.0101 -6.46445e-14 0)
(4.0101 -7.87769e-14 0)
(4.0101 -5.57378e-14 0)
(4.0101 -4.70081e-15 0)
(4.0101 -3.59029e-14 0)
(4.0101 -4.38276e-14 0)
(4.0101 -3.79899e-14 0)
(4.0101 -1.25355e-15 0)
(4.0101 4.40943e-14 0)
(4.0101 5.78467e-14 0)
(4.0101 6.68215e-14 0)
(4.0101 6.14739e-14 0)
(4.0101 4.31008e-14 0)
(4.0101 1.01964e-13 0)
(4.0101 1.9331e-13 0)
(4.0101 1.99521e-13 0)
(4.0101 1.81198e-13 0)
(4.0101 1.05988e-13 0)
(4.0101 6.07072e-14 0)
(4.0101 3.27923e-14 0)
(4.0101 -2.44676e-14 0)
(4.0101 -2.45709e-15 0)
(4.0101 -6.42111e-15 0)
(4.0101 -6.88119e-15 0)
(4.0101 1.67162e-14 0)
(4.0101 1.83365e-15 0)
(4.0101 5.9777e-14 0)
(4.0101 4.29041e-14 0)
(4.0101 1.43258e-14 0)
(4.0101 6.32176e-14 0)
(4.0101 7.48696e-14 0)
(4.0101 5.45161e-14 0)
(4.0101 3.66397e-15 0)
(4.0101 -1.00564e-13 0)
(4.0101 -1.10906e-13 0)
(4.0101 -1.18017e-13 0)
(4.0101 -1.52006e-13 0)
(4.0101 -1.60664e-13 0)
(4.0101 -1.13806e-13 0)
(4.0101 -1.93333e-14 0)
(4.0101 -2.46009e-14 0)
(4.0101 -1.20001e-13 0)
(4.0101 -1.26144e-13 0)
(4.0101 1.23188e-14 0)
(4.0101 -9.50831e-15 0)
(4.0101 1.64928e-14 0)
(4.0101 1.10886e-14 0)
(4.0101 3.4966e-14 0)
(4.0101 4.51445e-14 0)
(4.0101 4.01769e-14 0)
(4.0101 3.17121e-14 0)
(4.0101 5.94669e-14 0)
(4.0101 1.09306e-13 0)
(4.0101 1.41171e-13 0)
(4.0101 5.70098e-14 0)
(4.0101 5.29058e-14 0)
(4.0101 5.73066e-14 0)
(4.0101 2.93584e-14 0)
(4.0101 -8.16808e-14 0)
(4.0101 -1.5446e-13 0)
(4.0101 -1.35203e-13 0)
(4.0101 -7.16857e-14 0)
(4.0101 -9.30161e-16 0)
(4.0101 -1.58927e-14 0)
(4.0101 -4.21739e-15 0)
(4.0101 -3.21722e-14 0)
(4.0101 -2.61078e-14 0)
(4.0101 2.01601e-14 0)
(4.0101 1.16867e-13 0)
(4.0101 1.02084e-13 0)
(4.0101 -5.33759e-15 0)
(4.0101 -5.30425e-15 0)
(4.0101 -3.44326e-14 0)
(4.0101 -1.44115e-13 0)
(4.0101 -1.76857e-13 0)
(4.0101 -1.70873e-13 0)
(4.0101 -2.18791e-13 0)
(4.0101 -2.23392e-13 0)
(4.0101 -1.66375e-13 0)
(4.0101 -1.43141e-13 0)
(4.0101 -1.18607e-13 0)
(4.0101 -1.13163e-13 0)
(4.0101 -9.89943e-14 0)
(4.0101 -1.25322e-14 0)
(4.0101 -7.3346e-15 0)
(4.0101 2.20705e-14 0)
(4.0101 4.10938e-14 0)
(4.0101 2.38341e-14 0)
(4.0101 5.06754e-14 0)
(4.0101 1.87666e-14 0)
(4.0101 -3.54461e-14 0)
(4.0101 -4.59946e-14 0)
(4.0101 -4.2354e-14 0)
(4.0101 -9.43496e-14 0)
(4.0101 -9.91538e-14 0)
(4.0101 -8.38945e-14 0)
(4.0101 -1.26835e-13 0)
(4.0101 -1.67546e-13 0)
(4.0101 -1.43515e-13 0)
(4.0101 -1.68026e-13 0)
(4.0101 -9.03123e-14 0)
(4.0101 -8.84753e-14 0)
(4.0101 -5.81567e-14 0)
(4.0101 -2.5301e-14 0)
(4.0101 -3.32657e-14 0)
(4.0101 -4.94352e-14 0)
(4.0101 -5.70765e-14 0)
(4.0101 -5.59663e-14 0)
(4.0101 -1.24695e-13 0)
(4.0101 -1.46979e-13 0)
(4.0101 -1.9391e-13 0)
(4.0101 -2.21808e-13 0)
(4.0101 -1.63565e-13 0)
(4.0101 -6.59514e-14 0)
(4.0101 -2.33107e-14 0)
(4.0101 8.83486e-16 0)
(4.0101 -4.30041e-14 0)
(4.0101 -1.56137e-13 0)
(4.0101 -2.05345e-13 0)
(4.0101 -1.89536e-13 0)
(4.0101 -1.42591e-13 0)
(4.0101 -5.66398e-14 0)
(4.0101 -6.48699e-15 0)
(4.0101 1.18854e-14 0)
(4.0101 2.40041e-15 0)
(4.0101 -1.06818e-14 0)
(4.0101 -5.43094e-15 0)
(4.0101 1.34357e-15 0)
(4.0101 4.17072e-15 0)
(4.0101 5.32425e-15 0)
(4.0101 -2.74181e-14 0)
(4.0101 -6.96687e-14 0)
(4.0101 -1.27382e-13 0)
(4.0101 -1.86416e-13 0)
(4.0101 -1.61388e-13 0)
(4.0101 -1.58884e-13 0)
(4.0101 -1.77097e-13 0)
(4.0101 -1.90206e-13 0)
(4.0101 -1.25288e-13 0)
(4.0101 -2.97685e-14 0)
(4.0101 5.71732e-14 0)
(4.0101 1.11099e-13 0)
(4.0101 9.93172e-14 0)
(4.0101 3.72364e-14 0)
(4.0101 -1.56944e-13 0)
(4.0101 -2.46326e-13 0)
(4.0101 -2.65232e-13 0)
(4.0101 -2.33634e-13 0)
(4.0101 -2.8675e-13 0)
(4.0101 -2.98045e-13 0)
(4.0101 -1.87259e-13 0)
(4.0101 -1.40954e-13 0)
(4.0101 -1.32326e-13 0)
(4.0101 -4.4141e-14 0)
(4.0101 4.85951e-14 0)
(4.0101 8.57781e-14 0)
(4.0101 7.88636e-14 0)
(4.0101 -7.34894e-14 0)
(4.0101 -2.26896e-13 0)
(4.0101 -2.11113e-13 0)
(4.0101 -1.45845e-13 0)
(4.0101 -1.45192e-13 0)
(4.0101 -1.68659e-13 0)
(4.0101 5.89769e-15 0)
(4.0101 -2.35707e-15 0)
(4.0101 -2.48476e-14 0)
(4.0101 -3.835e-14 0)
(4.0101 -2.58411e-14 0)
(4.0101 -4.94452e-14 0)
(4.0101 -3.61096e-14 0)
(4.0101 6.59781e-15 0)
(4.0101 2.36508e-14 0)
(4.0101 2.06702e-14 0)
(4.0101 -2.9215e-14 0)
(4.0101 -8.81619e-14 0)
(4.0101 -1.06832e-13 0)
(4.0101 -2.73847e-14 0)
(4.0101 -1.49359e-15 0)
(4.0101 1.93233e-14 0)
(4.0101 1.80034e-13 0)
(4.0101 2.1307e-13 0)
(4.0101 1.48926e-13 0)
(4.0101 6.58247e-14 0)
(4.0101 3.6623e-14 0)
(4.0101 1.15187e-14 0)
(4.0101 -3.01385e-15 0)
(4.0101 -1.81265e-14 0)
(4.0101 -7.67833e-14 0)
(4.0101 -1.62738e-13 0)
(4.0101 -1.80458e-13 0)
(4.0101 -1.03585e-13 0)
(4.0101 -6.83885e-14 0)
(4.0101 -6.22441e-14 0)
(4.0101 -5.71132e-14 0)
(4.0101 -1.79331e-14 0)
(4.0101 -6.1644e-15 0)
(4.0101 -1.02111e-13 0)
(4.0101 -1.41298e-13 0)
(4.0101 -1.17134e-13 0)
(4.0101 -1.5683e-13 0)
(4.0101 -2.05435e-13 0)
(4.0101 -2.35794e-13 0)
(4.0101 -3.03467e-13 0)
(4.0101 -1.32456e-14 0)
(4.0101 -7.21125e-15 0)
(4.0101 1.1412e-14 0)
(4.0101 7.13457e-16 0)
(4.0101 -1.06615e-13 0)
(4.0101 -1.43985e-13 0)
(4.0101 -1.1564e-13 0)
(4.0101 -3.53528e-14 0)
(4.0101 8.20142e-14 0)
(4.0101 1.14753e-13 0)
(4.0101 7.34027e-14 0)
(4.0101 1.86799e-14 0)
(4.0101 -2.58378e-15 0)
(4.0101 8.46813e-16 0)
(4.0101 8.38545e-14 0)
(4.0101 1.20674e-13 0)
(4.0101 4.24673e-14 0)
(4.0101 7.03455e-15 0)
(4.0101 -5.29491e-14 0)
(4.0101 -6.62014e-14 0)
(4.0101 1.02828e-13 0)
(4.0101 2.1305e-13 0)
(4.0101 2.60885e-13 0)
(4.0101 1.3389e-13 0)
(4.0101 1.23321e-14 0)
(4.0101 -1.03001e-13 0)
(4.0101 -1.02461e-13 0)
(4.0101 -4.43277e-14 0)
(4.0101 5.94103e-15 0)
(4.0101 5.49762e-15 0)
(4.0101 -7.17491e-14 0)
(4.0101 -7.41328e-14 0)
(4.0101 -1.27629e-13 0)
(4.0101 -2.64799e-13 0)
(4.0101 -3.02962e-13 0)
(4.0101 -2.37901e-13 0)
(4.0101 -2.43345e-13 0)
(4.0101 -2.28609e-13 0)
(4.0101 -2.58958e-13 0)
(4.0101 -3.76824e-13 0)
(4.0101 1.05018e-14 0)
(4.0101 2.12037e-15 0)
(4.0101 -2.77415e-14 0)
(4.0101 -3.0672e-14 0)
(4.0101 -5.70899e-14 0)
(4.0101 -6.5488e-14 0)
(4.0101 -7.08122e-14 0)
(4.0101 -5.71465e-14 0)
(4.0101 2.46376e-15 0)
(4.0101 3.02386e-15 0)
(4.0101 4.34408e-15 0)
(4.0101 3.61062e-14 0)
(4.0101 7.76067e-14 0)
(4.0101 7.5493e-14 0)
(4.0101 4.30608e-14 0)
(4.0101 -3.98435e-14 0)
(4.0101 -4.30974e-14 0)
(4.0101 -5.19456e-14 0)
(4.0101 -9.63566e-14 0)
(4.0101 -1.08662e-13 0)
(4.0101 -8.33344e-14 0)
(4.0101 -7.17357e-14 0)
(4.0101 -7.36927e-14 0)
(4.0101 -1.43828e-13 0)
(4.0101 -1.61525e-13 0)
(4.0101 -1.14726e-13 0)
(4.0101 8.39812e-15 0)
(4.0101 4.90651e-14 0)
(4.0101 9.00189e-14 0)
(4.0101 7.04522e-14 0)
(4.0101 3.95068e-15 0)
(4.0101 -6.20607e-14 0)
(4.0101 -6.17573e-14 0)
(4.0101 -6.83218e-14 0)
(4.0101 -3.37325e-14 0)
(4.0101 -5.64597e-14 0)
(4.0101 -1.31943e-13 0)
(4.0101 -2.11557e-13 0)
(4.0101 -2.33034e-13 0)
(4.0101 -2.31051e-13 0)
(4.0101 -8.95488e-15 0)