/*--------------------------------*- C++ -*----------------------------------*\
| =========                 |                                                 |
| \\      /  F ield         | OpenFOAM: The Open Source CFD Toolbox           |
|  \\    /   O peration     | Version:  2206                                  |
|   \\  /    A nd           | Website:  www.openfoam.com                      |
|    \\/     M anipulation  |                                                 |
\*---------------------------------------------------------------------------*/
FoamFile
{
    version     2.0;
    format      ascii;
    arch        "LSB;label=32;scalar=64";
    class       volVectorField;
    location    "0.18";
    object      U;
}
// * * * * * * * * * * * * * * * * * * * * * * * * * * * * * * * * * * * * * //

dimensions      [0 1 -1 0 0 0 0];

internalField   nonuniform List<vector> 
75
(
(6.19192 -7.2325e-15 0)
(6.19192 -6.96704e-15 0)
(6.19192 1.07269e-15 0)
(6.19192 -6.6524e-15 0)
(6.19192 -7.91891e-14 0)
(6.19192 -1.70321e-15 0)
(6.19192 4.09904e-15 0)
(6.19192 7.93012e-15 0)
(6.19192 1.39107e-15 0)
(6.19192 -1.04474e-16 0)
(6.19192 1.30593e-14 0)
(6.19192 1.26668e-14 0)
(6.19192 -1.63003e-14 0)
(6.19192 2.405e-15 0)
(6.19192 8.58302e-14 0)
(6.19192 8.44271e-15 0)
(6.19192 5.33175e-15 0)
(6.19192 5.42677e-15 0)
(6.19192 2.43084e-14 0)
(6.19192 4.0512e-14 0)
(6.19192 9.76419e-16 0)
(6.19192 3.63688e-15 0)
(6.19192 1.28326e-14 0)
(6.19192 2.10078e-14 0)
(6.19192 3.30845e-14 0)
(6.16941 -0.0342935 0)
(6.12498 0.103703 0)
(6.08812 0.0554755 0)
(6.02075 0.268328 0)
(5.98641 0.268572 0)
(5.8987 0.515939 0)
(5.87425 0.540173 0)
(5.76131 0.815018 0)
(5.77624 0.850811 0)
(5.61023 1.13317 0)
(6.19192 5.90196e-06 0)
(6.19192 1.10186e-05 0)
(6.20087 -0.0190546 0)
(6.1784 0.0471821 0)
(6.17961 0.0262241 0)
(6.09842 0.221383 0)
(6.0665 0.34727 0)
(5.87777 0.806115 0)
(5.85597 1.0392 0)
(5.53444 1.70946 0)
(6.19192 5.35215e-08 0)
(6.19192 -2.77305e-08 0)
(6.19194 -4.12507e-05 0)
(6.19194 -4.14143e-05 0)
(6.19205 -0.000391211 0)
(6.19183 0.000221066 0)
(6.19476 -0.00862601 0)
(6.18711 0.0245707 0)
(6.184 0.0257855 0)
(5.99635 0.631797 0)
(6.19192 2.5488e-09 0)
(6.19192 2.58455e-09 0)
(6.19192 3.66474e-07 0)
(6.19192 -5.1135e-07 0)
(6.19193 -3.78467e-05 0)
(6.19193 -3.76307e-05 0)
(6.19203 -0.000230923 0)
(6.19209 -0.000696171 0)
(6.19205 -0.000437519 0)
(6.17093 0.0864958 0)
(6.19192 -1.16761e-11 0)
(6.19192 3.0347e-10 0)
(6.19192 5.84685e-08 0)
(6.19192 4.99968e-08 0)
(6.19192 1.40595e-07 0)
(6.19192 -5.10886e-06 0)
(6.19192 5.23716e-07 0)
(6.19195 -9.58038e-05 0)
(6.192 -0.000177924 0)
(6.19111 0.00207971 0)
)
;

boundaryField
{
    inlet
    {
        type            fixedValue;
        value           uniform (6.19192 0 0);
    }
    outlet
    {
        type            zeroGradient;
    }
    bottom
    {
        type            symmetryPlane;
    }
    top
    {
        type            symmetryPlane;
    }
    obstacle
    {
        type            slip;
    }
    defaultFaces
    {
        type            empty;
    }
}


// ************************************************************************* //
