/*--------------------------------*- C++ -*----------------------------------*\
| =========                 |                                                 |
| \\      /  F ield         | OpenFOAM: The Open Source CFD Toolbox           |
|  \\    /   O peration     | Version:  2206                                  |
|   \\  /    A nd           | Website:  www.openfoam.com                      |
|    \\/     M anipulation  |                                                 |
\*---------------------------------------------------------------------------*/
FoamFile
{
    version     2.0;
    format      ascii;
    arch        "LSB;label=32;scalar=64";
    class       volScalarField;
    location    "0.08";
    object      p;
}
// * * * * * * * * * * * * * * * * * * * * * * * * * * * * * * * * * * * * * //

dimensions      [1 -1 -2 0 0 0 0];

internalField   nonuniform List<scalar> 
4800
(
1
1
1
1
1
1
1
1
1
1
1
1
1
1
1
1
1
1
1
1
1
1
1
1
1
1
1
1
1
1
1
1
1
1
1
1
1
1
1
1
1
1
1
1
1
1
1
1
1
1
1
1
1
1
1
1
1
1
1
1
1
1
1
1
1
1
1
1
1
1
1
1
1
1
1
1
1
1
1
1
1
1
1
1
1
1
1
1
1
1
1
1
1
1
1
1
1
1
1
1
1
1
1
1
1
1
1
1
1
1
1
1
1
1
1
1
1
1
1
1
1
1
1
1
1
1
1
1
1
1
1
1
1
1
1
1
1
1
1
1
1
1
1
1
1
1
1
1
1
1
1
1
1
1
1
1
1
1
1
1
1
1
1
1
1
1
1
1
1
1
1
1
1
1
1
1
1
1
1
1
1
1
1
1
1
1
1
1
1
1
1
1
1
1
1
1
1
1
1
1
1
1
1
1
1
1
1
1
1
1
1
1
1
1
1
1
1
1
1
1
1
1
1
1
1
1
1
1
1
1
1
1
1
1
1
1
1
1
1
1
1
1
1
1
1
1
1
1
1
1
1
1
1
1
1
1
1
1
1
1
1
1
1
1
1
1
1
1
1
1
1
1
1
1
1
1
1
1
1
1
1
1
1
1
1
1
1
1
1
1
1
1
1
1
1
1
1
1
1
1
1
1
1
1
1
1
1
1
1
1
1
1
1
1
1
1
1
1
1
1
1
1
1
1
1
1
1
1
1
1
1
1
1
1
1
1
1
1
1
1
1
1
1
1
1
1
1
1
1
1
1
1
1
1
1
1
1
1
1
1
1
1
1
1
1
1
1
1
1
1
1
1
1
1
1
1
1
1
1
1
1
1
1
1
1
1
1
1
1
1
1
1
1
1
1
1
1
1
1
1
1
1
1
1
1
1
1
1
1
1
1
1
1
1
1
1
1
1
1
1
1
1
1
1
1
1
1
1
1
1
1
1
1
1
1
1
1
1
1
1
1
1
1
1
1
1
1
1
1
1
1
1
1
1
1
1
1
1
1
1
1
1
1
1
1
1
1
1
1
1
1
1
1
1
1
1
1
1
1
1
1
1
1
1
1
1
1
1
1
1
1
1
1
1
1
1
1
1
1
1
1
1
1
1
1
1
1
1
1
1
1
1
1
1
1
1
1
1
1
1
1
1
1
1
1
1
1
1
1
1
1
1
1
1
1
1
1
1
1
1
1
1
1
1
1
1
1
1
1
1
1
1
1
1
1
1
1
1
1
1
1
1
1
1
1
1
1
1
1
1
1
1
1
1
1
1
1
1
1
1
1
1
1
1
1
1
1
1
1
1
1
1
1
1
1
1
1
1
1
1
1
1
1
1
1
1
1
1
1
1
1
1
1
1
1
1
1
1
1
1
1
1
1
1
1
1
1
1
1
1
1
1
1
1
1
1
1
1
1
1
1
1
1
1
1
1
1
1
1
1
1
1
1
1
1
1
1
1
1
1
1
1
1
1
1
1
1
1
1
1
1
1
1
1
1
1
1
1
1
1
1
1
1
1
1
1
1
1
1
1
1
1
1
1
1
1
1
1
1
1
1
1
1
1
1
1
1
1
1
1
1
1
1
1
1
1
1
1
1
1
1
1
1
1
1
1
1
1
1
1
1
1
1
1
1
1
1
1
1
1
1
1
1
1
1
1
1
1
1
1
1
1
1
1
1
1
1
1
1
1
1
1
1
1
1
1
1
1
1
1
1
1
1
1
1
1
1
1
1
1
1
1
1
1
1
1
1
1
1
1
1
1
1
1
1
1
1
1
1
1
1
1
1
1
1
1
1
1
1
1
1
1
1
1
1
1
1
1
1
1
1
1
1
1
1
1
1
1
1
1
1
1
1
1
1
1
1
1
1
1
1
1
1
1
1
1
1
1
1
1
1
1
1
1
1
1
1
1
1
1
1
1
1
1
1
1
1
1
1
1
1
1
1
1
1
1
1
1
1
1
1
1
1
1
1
1
1
1
1
1
1
1
1
1
1
1
1
1
1
1
1
1
1
1
1
1
1
1
1
1
1
1
1
1
1
1
1
1
1
1
1
1
1
1
1
1
1
1
1
1
1
1
1
1
1
1
1
1
1
1
1
1
1
1
1
1
1
1
1
1
1
1
1
1
1
1
1
1
1
1
1
1
1
1
1
1
1
1
1
1
1
1
1
1
1
1
1
1
1
1
1
1
1
1
1
1
1
1
1
1
1
1
1
1
1
1
1
1
1
1
1
1
1
1
1
1
1
1
1
1
1
1
1
1
1
1
1
1
1
1
1
1
1
1
1
1
1
1
1
1
1
1
1
1
1
1
1
1
1
1
1
1
1
1
1
1
1
1
1
1
1
1
1
1
1
1
1
1
1
1
1
1
1
1
1
1
1
1
1
1
1
1
1
1
1
1
1
1
1
1
1
1
1
1
1
1
1
1
1
1
1
1
1
1
1
1
1
1
1
1
1
1
1
1
1
1
1
1
1
1
1
1
1
1
1
1
1
1
1
1
1
1
1
1
1
1
1
1
1
1
1
1
1
1
1
1
1
1
1
1
1
1
1
1
1
1
1
1
1
1
1
1
1
1
1
1
1
1
1
1
1
1
1
1
1
1
1
1
1
1
1
1
1
1
1
1
1
1
1
1
1
1
1
1
1
1
1
1
1
1
1
1
1
1
1
1
1
1
1
1
1
1
1
1
1
1
1
1
1
1
1
1
1
1
1
1
1
1
1
1
1
1
1
1
1
1
1
1
1
1
1
1
1
1
1
1
1
1
1
1
1
1
1
1
1
1
1
1
1
1
1
1
1
1
1
1
1
1
1
1
1
1
1
1
1
1
1
1
1
1
1
1
1
1
1
1
1
1
1
1
1
1
1
1
1
1
1
1
1
1
1
1
1
1
1
1
1
1
1
1
1
1
1
1
1
1
1
1
1
1
1
1
1
1
1
1
1
1
1
1
1
1
1
1
1
1
1
1
1
1
1
1
1
1
1
1
1
1
1
1
1
1
1
1
1
1
1
1
1
1
1
1
1
1
1
1
1
1
1
1
1
1
1
1
1
1
1
1
1
1
1
1
1
1
1
1
1
1
1
1
1
1
1
1
1
1
1
1
1
1
1
1
1
1
1
1
1
1
1
1
1
1
1
1
1
1
1
1
1
1
1
1
1
1
1
1
1
1
1
1
1
1
1
1
1
1
1
1
1
1
1
1
1
1
1
1
1
1
1
1
1
1
1
1
1
1
1
1
1
1
1
1
1
1
1
1
1
1
1
1
1
1
1
1
1
1
1
1
1
1
1
1
1
1
1
1
1
1
1
1
1
1
1
1
1
1
1
1
1
1
1
1
1
1
1
1
1
1
1
1
1
1
1
1
1
1
1
1
1
1
1
1
1
1
1
1
1
1
1
1
1
1
1
1
1
1
1
1
1
1
1
1
1
1
1
1
1
1
1
1
1
1
1
1
1
1
1
1
1
1
1
1
1
1
1
1
1
1
1
1
1
1
1
1
1
1
1
1
1
1
1
1
1
1
1
1
1
1
1
1
1
1
1
1
1
1
1
1
1
1
1
1
1
1
1
1
1
1
1
1
1.26202
1.68326
2.17441
2.72712
3.40674
3.99048
4.41719
4.99299
5.81461
6.06365
6.21232
6.5154
6.63168
6.58826
6.31561
5.89011
5.49957
5.09215
4.65934
4.43694
4.38232
4.33247
4.24862
4.23478
4.26147
4.34951
4.46385
4.4838
4.48047
4.497
4.53174
4.56539
4.57391
4.57102
4.57423
4.58846
4.60274
4.60699
4.60325
4.5917
4.57113
4.54881
4.54491
4.55418
4.58043
4.61569
4.6349
4.63736
4.63463
4.62339
4.60943
4.59799
4.58532
4.57644
4.5747
4.57606
4.57422
4.5709
4.57263
4.58668
4.61314
4.64111
4.65628
4.65669
4.65012
4.63604
4.61456
4.5818
4.52221
4.43658
4.38061
4.36808
4.36447
4.37141
4.41533
4.45947
4.47029
4.46498
4.44684
4.39444
1
0.999109
1.01123
1.02963
1.0729
1.23415
1.48379
1.68225
2.02801
2.52734
2.94816
3.38027
3.83076
4.28538
4.43526
4.56477
4.8975
4.97438
4.92268
4.8296
4.82739
4.8416
4.79532
4.67273
4.56504
4.56031
4.51204
4.45669
4.42848
4.43574
4.47132
4.52599
4.5388
4.53758
4.54408
4.56431
4.58854
4.60054
4.5997
4.59306
4.58588
4.57896
4.5725
4.57544
4.57925
4.57921
4.58296
4.59314
4.59801
4.60148
4.60411
4.60561
4.61138
4.61749
4.61841
4.61566
4.60536
4.5886
4.58048
4.58203
4.5875
4.59509
4.6057
4.61559
4.62088
4.61804
4.60402
4.57459
4.53685
4.49003
4.43294
4.39442
4.38616
4.38778
4.39482
4.40643
4.42297
4.42713
4.4164
4.38417
1
1
1
1
1
1
1
0.999131
1.00257
1.03337
1.11828
1.29192
1.63119
2.1286
2.88221
3.75459
4.6478
4.98096
5.21168
5.31338
5.28138
5.2396
5.16848
5.03866
4.83709
4.61498
4.53157
4.43755
4.4254
4.43715
4.47174
4.51807
4.53461
4.52776
4.52224
4.52959
4.54303
4.56625
4.59312
4.60274
4.60745
4.60809
4.60987
4.61024
4.60329
4.58629
4.56863
4.55669
4.55583
4.55997
4.57229
4.59708
4.6251
4.63872
4.64099
4.63978
4.63378
4.62124
4.60613
4.59472
4.58832
4.58252
4.57492
4.57033
4.57136
4.5808
4.58547
4.57719
4.55499
4.52006
4.48002
4.4415
4.41035
4.39713
4.38918
4.38464
4.38187
4.38685
4.38604
4.37871
1
1
1
1
1
1
1
1
1
1
1
1
0.999099
1.00494
1.08226
1.32587
1.81323
2.66348
3.40039
4.25509
4.53566
4.74599
4.8243
4.75086
4.72142
4.794
4.82765
4.76981
4.66613
4.64848
4.62598
4.60638
4.5462
4.46219
4.42505
4.42736
4.44543
4.48754
4.54616
4.58896
4.61443
4.63465
4.64037
4.63688
4.62341
4.60371
4.57517
4.55063
4.54817
4.55086
4.55314
4.56336
4.59118
4.62853
4.65192
4.65836
4.65619
4.64412
4.62799
4.61215
4.59735
4.58525
4.5758
4.56808
4.559
4.54638
4.54118
4.54528
4.5408
4.52307
4.49224
4.457
4.4288
4.40112
4.37626
4.35947
4.35004
4.34674
4.35566
4.3759
1
1
1
1
1
1
1
1
1
1
1
1
1
1
1
0.999634
1.00001
1.06026
1.23137
1.61032
2.35264
3.14632
4.01137
4.37654
4.72239
4.98336
4.95711
4.93809
4.90468
4.85242
4.77107
4.65332
4.57507
4.49751
4.46059
4.4556
4.4644
4.48512
4.51915
4.55293
4.57423
4.58672
4.59986
4.61297
4.61897
4.61585
4.60452
4.59395
4.58882
4.58373
4.57299
4.56601
4.56798
4.57999
4.59364
4.60481
4.6159
4.62561
4.62852
4.62629
4.62015
4.61473
4.6072
4.59438
4.57591
4.55234
4.52783
4.51399
4.50131
4.48739
4.47589
4.46094
4.43864
4.40633
4.37411
4.35327
4.34259
4.33934
4.34111
4.36273
1
1
1
1
1
1
1
1
1
1
1
1
1
1
1
1
1
1
0.999934
0.999147
1.03439
1.15408
1.47059
2.15033
2.86041
3.7299
4.07688
4.38573
4.61725
4.60374
4.61911
4.70118
4.71121
4.67186
4.61858
4.6021
4.58539
4.5655
4.54215
4.50216
4.48053
4.47898
4.49572
4.53711
4.58255
4.61385
4.63263
4.64462
4.64869
4.64513
4.62472
4.58755
4.57326
4.56852
4.56649
4.56689
4.57147
4.58239
4.60051
4.62234
4.63666
4.63797
4.63214
4.62364
4.61269
4.58818
4.54311
4.50332
4.47469
4.45154
4.43865
4.43425
4.42744
4.41623
4.39766
4.36783
4.35073
4.34225
4.33981
4.35119
1
1
1
1
1
1
1
1
1
1
1
1
1
1
1
1
1
1
1
1
1
1
0.99927
1.01951
1.10072
1.37211
2.02007
2.68976
3.51157
3.96634
4.3872
4.6999
4.72769
4.73273
4.72995
4.71636
4.68311
4.63296
4.58303
4.5161
4.46333
4.45426
4.46278
4.48901
4.5239
4.57066
4.62345
4.65281
4.65917
4.6578
4.64765
4.62375
4.58903
4.57465
4.56854
4.56408
4.56145
4.56253
4.57173
4.5901
4.61139
4.62725
4.63624
4.63863
4.63065
4.61138
4.57002
4.50731
4.46086
4.42769
4.4146
4.41413
4.4234
4.42515
4.41686
4.4013
4.36801
4.34531
4.33886
4.34557
1
1
1
1
1
1
1
1
1
1
1
1
1
1
1
1
1
1
1
1
1
1
1
1
1
0.999434
1.01648
1.0791
1.31924
1.91914
2.57791
3.37773
3.78367
4.17795
4.4888
4.53224
4.5795
4.65166
4.66821
4.64303
4.58874
4.54494
4.50938
4.49845
4.50664
4.51864
4.53812
4.56813
4.60362
4.63049
4.63871
4.64178
4.64298
4.63869
4.62899
4.61286
4.59089
4.57619
4.57373
4.57695
4.58306
4.59003
4.60078
4.61377
4.62198
4.61463
4.58612
4.5377
4.45787
4.41361
4.40248
4.40134
4.41356
4.42886
4.42865
4.42141
4.40603
4.36869
4.34829
4.34828
1
1
1
1
1
1
1
1
1
1
1
1
1
1
1
1
1
1
1
1
1
1
1
1
1
1
1
1
0.999643
1.01257
1.06708
1.30484
1.86537
2.53114
3.31728
3.78807
4.26612
4.56659
4.62129
4.64847
4.64975
4.62991
4.58503
4.55985
4.5371
4.51381
4.49618
4.49262
4.50095
4.52228
4.56218
4.60499
4.63914
4.66166
4.66771
4.66614
4.65878
4.6389
4.60895
4.58704
4.57661
4.57314
4.57361
4.57475
4.58171
4.59053
4.58312
4.55359
4.4876
4.41553
4.39317
4.3874
4.3901
4.40997
4.42865
4.42791
4.42089
4.40556
4.3706
4.35359
1
1
1
1
1
1
1
1
1
1
1
1
1
1
1
1
1
1
1
1
1
1
1
1
1
1
1
1
0.999999
1
0.999962
0.99985
1.01293
1.06699
1.34599
1.92385
2.57862
3.28052
3.74346
4.20451
4.50979
4.57808
4.5868
4.64079
4.66768
4.64478
4.58649
4.52002
4.4776
4.47373
4.48772
4.51787
4.56041
4.61087
4.64218
4.656
4.66017
4.65917
4.65343
4.64341
4.6235
4.59702
4.57472
4.5699
4.5681
4.56834
4.5727
4.55842
4.51673
4.44612
4.38687
4.36724
4.36325
4.36612
4.38617
4.41556
4.42225
4.42005
4.40362
4.35719
1
1
1
1
1
1
1
1
1
1
1
1
1
1
1
1
1
1
1
1
1
1
1
1
1
1
1
1
1
1
0.999999
0.999998
1
0.999901
1.00046
1.0175
1.08031
1.38147
1.94318
2.6936
3.3764
3.87932
4.32416
4.54112
4.63785
4.65169
4.64746
4.62716
4.58153
4.53313
4.50772
4.50661
4.5228
4.54629
4.56216
4.57404
4.59206
4.61251
4.63616
4.6514
4.65437
4.64987
4.62885
4.58721
4.56416
4.5601
4.56013
4.55866
4.53742
4.49192
4.42051
4.36157
4.34863
4.34743
4.35033
4.37128
4.40914
4.41723
4.40871
4.37672
1
1
1
1
1
1
1
1
1
1
1
1
1
1
1
1
1
1
1
1
1
1
1
1
1
1
1
1
1
1
1
1
1
0.999999
0.999997
1
0.999902
1.00143
1.02038
1.11668
1.54318
2.16421
2.92114
3.49259
4.00278
4.41369
4.57302
4.58685
4.60253
4.65322
4.65022
4.62144
4.59021
4.56328
4.53621
4.51968
4.51972
4.53009
4.55785
4.61619
4.64789
4.65016
4.6466
4.61775
4.56747
4.55062
4.54679
4.55086
4.54793
4.52264
4.47692
4.41186
4.34819
4.32867
4.32719
4.3303
4.3545
4.3976
4.40756
4.38831
1
1
1
1
1
1
1
1
1
1
1
1
1
1
1
1
1
1
1
1
1
1
1
1
1
1
1
1
1
1
1
1
1
1
1
1
0.999997
0.999996
1.00001
0.999939
1.00572
1.03971
1.20238
1.72382
2.41579
3.21159
3.69866
4.14978
4.43657
4.59522
4.6382
4.64459
4.65629
4.65779
4.63523
4.58235
4.5255
4.51411
4.52913
4.56374
4.61098
4.6408
4.64028
4.61995
4.56831
4.52736
4.51601
4.51372
4.5231
4.51355
4.49148
4.46576
4.413
4.33996
4.31383
4.31678
4.32856
4.36338
4.40006
4.39301
1
1
1
1
1
1
1
1
1
1
1
1
1
1
1
1
1
1
1
1
1
1
1
1
1
1
1
1
1
1
1
1
1
1
1
1
1
1
1
0.999998
1
0.999962
1.00034
1.01445
1.07403
1.38656
2.03311
2.84433
3.45516
3.95235
4.33893
4.52884
4.61361
4.63678
4.63868
4.6261
4.61511
4.59518
4.58654
4.58501
4.59595
4.62294
4.62957
4.61999
4.58412
4.52191
4.47109
4.44533
4.44034
4.45584
4.47606
4.46574
4.45021
4.41265
4.34538
4.31791
4.31877
4.33281
4.37228
4.39215
1
1
1
1
1
1
1
1
1
1
1
1
1
1
1
1
1
1
1
1
1
1
1
1
1
1
1
1
1
1
1
1
1
1
1
1
1
1
1
1
1
0.999999
0.999997
1.00001
0.999971
1.00338
1.0396
1.18002
1.71807
2.52001
3.40889
3.80501
4.16635
4.45675
4.55472
4.57553
4.6048
4.62837
4.62714
4.61976
4.62664
4.64812
4.67002
4.667
4.64024
4.57703
4.4832
4.41903
4.39778
4.38884
4.39881
4.45018
4.46606
4.45596
4.41426
4.3456
4.32199
4.32083
4.34255
4.38354
1
1
1
1
1
1
1
1
1
1
1
1
1
1
1
1
1
1
1
1
1
1
1
1
1
1
1
1
1
1
1
1
1
1
1
1
1
1
1
1
1
1
1
1
0.999999
1
0.999982
1.00046
1.02163
1.11162
1.47947
2.26014
3.18364
3.84453
4.07281
4.27313
4.48266
4.56006
4.54653
4.55371
4.5844
4.62926
4.66187
4.67239
4.66659
4.65116
4.60051
4.48969
4.38216
4.35339
4.34826
4.37105
4.43605
4.45209
4.4394
4.39062
4.33129
4.31812
4.32217
4.36189
1
1
1
1
1
1
1
1
1
1
1
1
1
1
1
1
1
1
1
1
1
1
1
1
1
1
1
1
1
1
1
1
1
1
1
1
1
1
1
1
1
1
1
1
1
1
0.999999
0.999999
0.999993
1.00015
1.00735
1.09178
1.32546
1.99516
2.94073
3.90785
4.23256
4.31579
4.40232
4.46058
4.47344
4.48266
4.5026
4.55623
4.63784
4.66422
4.65216
4.6058
4.4792
4.35404
4.33554
4.33646
4.35651
4.41925
4.43554
4.41705
4.36152
4.31935
4.31337
4.33503
1
1
1
1
1
1
1
1
1
1
1
1
1
1
1
1
1
1
1
1
1
1
1
1
1
1
1
1
1
1
1
1
1
1
1
1
1
1
1
1
1
1
1
1
1
1
1
1
0.999999
0.999998
0.999989
1.00015
1.00272
1.05616
1.29634
1.89443
2.81189
3.74844
4.43198
4.53497
4.52868
4.47293
4.40905
4.37964
4.41889
4.56346
4.65997
4.65121
4.59543
4.47284
4.34984
4.30974
4.31005
4.35113
4.42106
4.42863
4.39983
4.33853
4.30924
4.31535
1
1
1
1
1
1
1
1
1
1
1
1
1
1
1
1
1
1
1
1
1
1
1
1
1
1
1
1
1
1
1
1
1
1
1
1
1
1
1
1
1
1
1
1
1
1
1
1
1
1
0.999999
0.999999
0.999994
1.00008
1.00265
1.03978
1.2841
1.86665
2.84735
3.72734
4.40715
4.59737
4.58157
4.43707
4.34402
4.37692
4.52912
4.62864
4.61121
4.55255
4.42196
4.30709
4.29256
4.30226
4.36874
4.42864
4.42428
4.38241
4.31841
4.30472
1
1
1
1
1
1
1
1
1
1
1
1
1
1
1
1
1
1
1
1
1
1
1
1
1
1
1
1
1
1
1
1
1
1
1
1
1
1
1
1
1
1
1
1
1
1
1
1
1
1
1
1
0.999999
0.999999
0.999996
1.00003
1.00268
1.03957
1.29562
1.88583
2.84708
3.89548
4.52007
4.54943
4.4458
4.35057
4.37821
4.50823
4.58894
4.57126
4.51114
4.38488
4.28709
4.27787
4.3014
4.38719
4.4318
4.41733
4.35929
4.30632
1
1
1
1
1
1
1
1
1
1
1
1
1
1
1
1
1
1
1
1
1
1
1
1
1
1
1
1
1
1
1
1
1
1
1
1
1
1
1
1
1
1
1
1
1
1
1
1
1
1
1
1
1
1
1
0.999999
0.999996
1.00004
1.00293
1.04551
1.31925
2.00213
3.10226
4.2487
4.45955
4.38424
4.31426
4.35554
4.50053
4.56392
4.55287
4.48931
4.35447
4.26255
4.25922
4.30446
4.39977
4.42712
4.40555
4.33398
1
1
1
1
1
1
1
1
1
1
1
1
1
1
1
1
1
1
1
1
1
1
1
1
1
1
1
1
1
1
1
1
1
1
1
1
1
1
1
1
1
1
1
1
1
1
1
1
1
1
1
1
1
1
1
1
0.999999
0.999999
0.999995
1.00008
1.00434
1.06798
1.42725
2.3495
3.62069
4.28531
4.24764
4.23998
4.3146
4.49308
4.54273
4.53367
4.47432
4.33102
4.24086
4.24429
4.30853
4.40304
4.41077
4.37225
1
1
1
1
1
1
1
1
1
1
1
1
1
1
1
1
1
1
1
1
1
1
1
1
1
1
1
1
1
1
1
1
1
1
1
1
1
1
1
1
1
1
1
1
1
1
1
1
1
1
1
1
1
1
1
1
1
1
0.999999
0.999999
0.999994
1.00023
1.01097
1.13808
1.67422
2.74355
3.86302
4.0992
4.15403
4.24617
4.44822
4.51334
4.50241
4.44627
4.30117
4.22293
4.23333
4.315
4.40761
4.40747
1
1
1
1
1
1
1
1
1
1
1
1
1
1
1
1
1
1
1
1
1
1
1
1
1
1
1
1
1
1
1
1
1
1
1
1
1
1
1
1
1
1
1
1
1
1
1
1
1
1
1
1
1
1
1
1
1
1
1
1
0.999999
0.999999
0.999997
1.00111
1.02929
1.23453
1.95406
3.13967
3.84752
4.01609
4.1549
4.38302
4.4754
4.46848
4.41925
4.27666
4.21568
4.23633
4.34848
4.40418
1
1
1
1
1
1
1
1
1
1
1
1
1
1
1
1
1
1
1
1
1
1
1
1
1
1
1
1
1
1
1
1
1
1
1
1
1
1
1
1
1
1
1
1
1
1
1
1
1
1
1
1
1
1
1
1
1
1
1
1
1
1
1
0.999998
1.00004
1.00383
1.06306
1.40703
2.29632
3.3615
3.77547
4.01403
4.29911
4.44215
4.43997
4.40423
4.26222
4.21212
4.24269
4.35618
1
1
1
1
1
1
1
1
1
1
1
1
1
1
1
1
1
1
1
1
1
1
1
1
1
1
1
1
1
1
1
1
1
1
1
1
1
1
1
1
1
1
1
1
1
1
1
1
1
1
1
1
1
1
1
1
1
1
1
1
1
1
1
1
1
0.999996
1.0003
1.01221
1.1248
1.62059
2.6019
3.37378
3.79414
4.18226
4.41362
4.41529
4.38072
4.23584
4.20427
4.26655
1
1
1
1
1
1
1
1
1
1
1
1
1
1
1
1
1
1
1
1
1
1
1
1
1
1
1
1
1
1
1
1
1
1
1
1
1
1
1
1
1
1
1
1
1
1
1
1
1
1
1
1
1
1
1
1
1
1
1
1
1
1
1
1
1
0.999999
0.999999
1.00001
1.0013
1.02865
1.21395
1.8629
2.7958
3.48247
4.03518
4.36899
4.38028
4.36037
4.22111
4.20328
1
1
1
1
1
1
1
1
1
1
1
1
1
1
1
1
1
1
1
1
1
1
1
1
1
1
1
1
1
1
1
1
1
1
1
1
1
1
1
1
1
1
1
1
1
1
1
1
1
1
1
1
1
1
1
1
1
1
1
1
1
1
1
1
1
1
1
1
0.999998
1.00008
1.0041
1.05555
1.37505
2.16076
3.0156
3.72224
4.27249
4.35227
4.34148
4.22313
1
1
1
1
1
1
1
1
1
1
1
1
1
1
1
1
1
1
1
1
1
1
1
1
1
1
1
1
1
1
1
1
1
1
1
1
1
1
1
1
1
1
1
1
1
1
1
1
1
1
1
1
1
1
1
1
1
1
1
1
1
1
1
1
1
1
1
1
1
1
0.999998
1.00037
1.01235
1.11646
1.59807
2.42348
3.2892
4.04693
4.30138
4.28161
1
1
1
1
1
1
1
1
1
1
1
1
1
1
1
1
1
1
1
1
1
1
1
1
1
1
1
1
1
1
1
1
1
1
1
1
1
1
1
1
1
1
1
1
1
1
1
1
1
1
1
1
1
1
1
1
1
1
1
1
1
1
1
1
1
1
1
1
1
1
1
0.999999
1.00002
1.00157
1.02742
1.22743
1.87949
2.7974
3.64851
4.17932
1
1
1
1
1
1
1
1
1
1
1
1
1
1
1
1
1
1
1
1
1
1
1
1
1
1
1
1
1
1
1
1
1
1
1
1
1
1
1
1
1
1
1
1
1
1
1
1
1
1
1
1
1
1
1
1
1
1
1
1
1
1
1
1
1
1
1
1
1
1
1
1
1
0.999998
1.0001
1.00555
1.0666
1.42824
2.21984
3.50484
1
1
1
1
1
1
1
1
1
1
1
1
1
1
1
1
1
1
1
1
1
1
1
1
1
1
1
1
1
1
1
1
1
1
1
1
1
1
1
1
1
1
1
1
1
1
1
1
1
1
1
1
1
1
1
1
1
1
1
1
1
1
1
1
1
1
1
1
1
1
1
1
1
1
1
1
1.00055
1.01855
1.14527
2.20944
1
1
1
1
1
1
1
1
1
1
1
1
1
1
1
1
1
1
1
1
1
1
1
1
1
1
1
1
1
1
1
1
1
1
1
1
1
1
1
1
1
1
1
1
1
1
1
1
1
1
1
1
1
1
1
1
1
1
1
1
1
1
1
1
1
1
1
1
1
1
1
1
1
1
1
1
0.999999
1.00007
1.00263
1.24758
1
1
1
1
1
1
1
1
1
1
1
1
1
1
1
1
1
1
1
1
1
1
1
1
1
1
1
1
1
1
1
1
1
1
1
1
1
1
1
1
1
1
1
1
1
1
1
1
1
1
1
1
1
1
1
1
1
1
1
1
1
1
1
1
1
1
1
1
1
1
1
1
1
1
1
1
1
1
1.00001
1.01573
1
1
1
1
1
1
1
1
1
1
1
1
1
1
1
1
1
1
1
1
1
1
1
1
1
1
1
1
1
1
1
1
1
1
1
1
1
1
1
1
1
1
1
1
1
1
1
1
1
1
1
1
1
1
1
1
1
1
1
1
1
1
1
1
1
1
1
1
1
1
1
1
1
1
1
1
1
1
1
1.00028
1
1
1
1
1
1
1
1
1
1
1
1
1
1
1
1
1
1
1
1
1
1
1
1
1
1
1
1
1
1
1
1
1
1
1
1
1
1
1
1
1
1
1
1
1
1
1
1
1
1
1
1
1
1
1
1
1
1
1
1
1
1
1
1
1
1
1
1
1
1
1
1
1
1
1
1
1
1
1
1
1
1
1
1
1
1
1
1
1
1
1
1
1
1
1
1
1
1
1
1
1
1
1
1
1
1
1
1
1
1
1
1
1
1
1
1
1
1
1
1
1
1
1
1
1
1
1
1
1
1
1
1
1
1
1
1
1
1
1
1
1
1
1
1
1
1
1
1
1
1
1
1
1
1
1
1
1
1
1
1
1
1
1
1
1
1
1
1
1
1
1
1
1
1
1
1
1
1
1
1
1
1
1
1
1
1
1
1
1
1
1
1
1
1
1
1
1
1
1
1
1
1
1
1
1
1
1
1
1
1
1
1
1
1
1
1
1
1
1
1
1
1
1
1
1
1
1
1
1
1
1
1
1
1
1
1
1
1
1
1
1
1
1
1
1
1
1
1
1
1
1
1
1
1
1
1
1
1
1
1
1
1
1
1
1
1
1
1
1
1
1
1
1
1
1
1
1
1
1
1
1
1
1
1
1
1
1
1
1
1
1
1
1
1
1
1
1
1
1
1
1
1
1
1
1
1
1
1
1
1
1
1
1
1
1
1
1
1
1
1
1
1
1
1
1
1
1
1
1
1
1
1
1
1
1
1
1
1
1
1
1
1
1
1
1
1
1
1
1
1
1
1
1
1
1
1
1
1
1
1
1
1
1
1
1
1
1
1
1
1
1
1
1
1
1
1
1
1
1
1
1
1
1
1
1
1
1
1
1
1
1
1
1
1
1
1
1
1
1
1
)
;

boundaryField
{
    inlet
    {
        type            fixedValue;
        value           uniform 1;
    }
    outlet
    {
        type            zeroGradient;
    }
    bottom
    {
        type            symmetryPlane;
    }
    top
    {
        type            symmetryPlane;
    }
    obstacle
    {
        type            zeroGradient;
    }
    defaultFaces
    {
        type            empty;
    }
}


// ************************************************************************* //
