/*--------------------------------*- C++ -*----------------------------------*\
| =========                 |                                                 |
| \\      /  F ield         | OpenFOAM: The Open Source CFD Toolbox           |
|  \\    /   O peration     | Version:  2206                                  |
|   \\  /    A nd           | Website:  www.openfoam.com                      |
|    \\/     M anipulation  |                                                 |
\*---------------------------------------------------------------------------*/
FoamFile
{
    version     2.0;
    format      ascii;
    arch        "LSB;label=32;scalar=64";
    class       volScalarField;
    location    "0.06";
    object      T;
}
// * * * * * * * * * * * * * * * * * * * * * * * * * * * * * * * * * * * * * //

dimensions      [0 0 0 1 0 0 0];

internalField   nonuniform List<scalar> 
4800
(
1
1
1
1
1
1
1
1
1
1
1
1
1
1
1
1
1
1
1
1
1
1
1
1
1
1
1
1
1
1
1
1
1
1
1
1
1
1
1
1
1
1
1
1
1
1
1
1
1
1
1
1
1
1
1
1
1
1
1
1
1
1
1
1
1
1
1
1
1
1
1
1
1
1
1
1
1
1
1
1
1
1
1
1
1
1
1
1
1
1
1
1
1
1
1
1
1
1
1
1
1
1
1
1
1
1
1
1
1
1
1
1
1
1
1
1
1
1
1
1
1
1
1
1
1
1
1
1
1
1
1
1
1
1
1
1
1
1
1
1
1
1
1
1
1
1
1
1
1
1
1
1
1
1
1
1
1
1
1
1
1
1
1
1
1
1
1
1
1
1
1
1
1
1
1
1
1
1
1
1
1
1
1
1
1
1
1
1
1
1
1
1
1
1
1
1
1
1
1
1
1
1
1
1
1
1
1
1
1
1
1
1
1
1
1
1
1
1
1
1
1
1
1
1
1
1
1
1
1
1
1
1
1
1
1
1
1
1
1
1
1
1
1
1
1
1
1
1
1
1
1
1
1
1
1
1
1
1
1
1
1
1
1
1
1
1
1
1
1
1
1
1
1
1
1
1
1
1
1
1
1
1
1
1
1
1
1
1
1
1
1
1
1
1
1
1
1
1
1
1
1
1
1
1
1
1
1
1
1
1
1
1
1
1
1
1
1
1
1
1
1
1
1
1
1
1
1
1
1
1
1
1
1
1
1
1
1
1
1
1
1
1
1
1
1
1
1
1
1
1
1
1
1
1
1
1
1
1
1
1
1
1
1
1
1
1
1
1
1
1
1
1
1
1
1
1
1
1
1
1
1
1
1
1
1
1
1
1
1
1
1
1
1
1
1
1
1
1
1
1
1
1
1
1
1
1
1
1
1
1
1
1
1
1
1
1
1
1
1
1
1
1
1
1
1
1
1
1
1
1
1
1
1
1
1
1
1
1
1
1
1
1
1
1
1
1
1
1
1
1
1
1
1
1
1
1
1
1
1
1
1
1
1
1
1
1
1
1
1
1
1
1
1
1
1
1
1
1
1
1
1
1
1
1
1
1
1
1
1
1
1
1
1
1
1
1
1
1
1
1
1
1
1
1
1
1
1
1
1
1
1
1
1
1
1
1
1
1
1
1
1
1
1
1
1
1
1
1
1
1
1
1
1
1
1
1
1
1
1
1
1
1
1
1
1
1
1
1
1
1
1
1
1
1
1
1
1
1
1
1
1
1
1
1
1
1
1
1
1
1
1
1
1
1
1
1
1
1
1
1
1
1
1
1
1
1
1
1
1
1
1
1
1
1
1
1
1
1
1
1
1
1
1
1
1
1
1
1
1
1
1
1
1
1
1
1
1
1
1
1
1
1
1
1
1
1
1
1
1
1
1
1
1
1
1
1
1
1
1
1
1
1
1
1
1
1
1
1
1
1
1
1
1
1
1
1
1
1
1
1
1
1
1
1
1
1
1
1
1
1
1
1
1
1
1
1
1
1
1
1
1
1
1
1
1
1
1
1
1
1
1
1
1
1
1
1
1
1
1
1
1
1
1
1
1
1
1
1
1
1
1
1
1
1
1
1
1
1
1
1
1
1
1
1
1
1
1
1
1
1
1
1
1
1
1
1
1
1
1
1
1
1
1
1
1
1
1
1
1
1
1
1
1
1
1
1
1
1
1
1
1
1
1
1
1
1
1
1
1
1
1
1
1
1
1
1
1
1
1
1
1
1
1
1
1
1
1
1
1
1
1
1
1
1
1
1
1
1
1
1
1
1
1
1
1
1
1
1
1
1
1
1
1
1
1
1
1
1
1
1
1
1
1
1
1
1
1
1
1
1
1
1
1
1
1
1
1
1
1
1
1
1
1
1
1
1
1
1
1
1
1
1
1
1
1
1
1
1
1
1
1
1
1
1
1
1
1
1
1
1
1
1
1
1
1
1
1
1
1
1
1
1
1
1
1
1
1
1
1
1
1
1
1
1
1
1
1
1
1
1
1
1
1
1
1
1
1
1
1
1
1
1
1
1
1
1
1
1
1
1
1
1
1
1
1
1
1
1
1
1
1
1
1
1
1
1
1
1
1
1
1
1
1
1
1
1
1
1
1
1
1
1
1
1
1
1
1
1
1
1
1
1
1
1
1
1
1
1
1
1
1
1
1
1
1
1
1
1
1
1
1
1
1
1
1
1
1
1
1
1
1
1
1
1
1
1
1
1
1
1
1
1
1
1
1
1
1
1
1
1
1
1
1
1
1
1
1
1
1
1
1
1
1
1
1
1
1
1
1
1
1
1
1
1
1
1
1
1
1
1
1
1
1
1
1
1
1
1
1
1
1
1
1
1
1
1
1
1
1
1
1
1
1
1
1
1
1
1
1
1
1
1
1
1
1
1
1
1
1
1
1
1
1
1
1
1
1
1
1
1
1
1
1
1
1
1
1
1
1
1
1
1
1
1
1
1
1
1
1
1
1
1
1
1
1
1
1
1
1
1
1
1
1
1
1
1
1
1
1
1
1
1
1
1
1
1
1
1
1
1
1
1
1
1
1
1
1
1
1
1
1
1
1
1
1
1
1
1
1
1
1
1
1
1
1
1
1
1
1
1
1
1
1
1
1
1
1
1
1
1
1
1
1
1
1
1
1
1
1
1
1
1
1
1
1
1
1
1
1
1
1
1
1
1
1
1
1
1
1
1
1
1
1
1
1
1
1
1
1
1
1
1
1
1
1
1
1
1
1
1
1
1
1
1
1
1
1
1
1
1
1
1
1
1
1
1
1
1
1
1
1
1
1
1
1
1
1
1
1
1
1
1
1
1
1
1
1
1
1
1
1
1
1
1
1
1
1
1
1
1
1
1
1
1
1
1
1
1
1
1
1
1
1
1
1
1
1
1
1
1
1
1
1
1
1
1
1
1
1
1
1
1
1
1
1
1
1
1
1
1
1
1
1
1
1
1
1
1
1
1
1
1
1
1
1
1
1
1
1
1
1
1
1
1
1
1
1
1
1
1
1
1
1
1
1
1
1
1
1
1
1
1
1
1
1
1
1
1
1
1
1
1
1
1
1
1
1
1
1
1
1
1
1
1
1
1
1
1
1
1
1
1
1
1
1
1
1
1
1
1
1
1
1
1
1
1
1
1
1
1
1
1
1
1
1
1
1
1
1
1
1
1
1
1
1
1
1
1
1
1
1
1
1
1
1
1
1
1
1
1
1
1
1
1
1
1
1
1
1
1
1
1
1
1
1
1
1
1
1
1
1
1
1
1
1
1
1
1
1
1
1
1
1
1
1
1
1
1
1
1
1
1
1
1
1
1
1
1
1
1
1
1
1
1
1
1
1
1
1
1
1
1
1
1
1
1
1
1
1
1
1
1
1
1
1
1
1
1
1
1
1
1
1
1
1
1
1
1
1
1
1
1
1
1
1
1
1
1
1
1
1
1
1
1
1
1
1
1
1
1
1
1
1
1
1
1
1
1
1
1
1
1
1
1
1
1
1
1
1
1
1
1
1
1
1
1
1
1
1
1
1
1
1
1
1
1
1
1
1
1
1
1
1
1
1
1
1
1
1
1
1.07406
1.16695
1.26082
1.35562
1.42707
1.483
1.54884
1.5787
1.58947
1.5841
1.56867
1.53582
1.49929
1.46885
1.45349
1.44642
1.4435
1.44446
1.44734
1.45126
1.45583
1.45917
1.45987
1.46022
1.46129
1.46321
1.46505
1.46604
1.46706
1.46701
1.46616
1.46406
1.46061
1.45678
1.4528
1.44907
1.44699
1.44487
1.44171
1.44047
1.4404
1.44005
1.43946
1.43893
1.43819
1.43696
1.43521
1.43326
1.43201
1.43157
1.43138
1.43158
1.43238
1.43283
1.4332
1.43372
1.43442
1.4354
1.43613
1.43648
1.43651
1.43652
1.43665
1.43702
1.43771
1.43889
1.44076
1.44364
1.44779
1.45196
1.4537
1.45386
1.45385
1.45385
1.45381
1.45373
1.4537
1.45371
1.45373
1.45379
1.00103
1.00981
1.02756
1.0631
1.12654
1.18865
1.24956
1.31388
1.3669
1.40878
1.43241
1.45309
1.48453
1.48595
1.48082
1.48079
1.47901
1.4728
1.46656
1.46271
1.46016
1.45973
1.46006
1.46146
1.46386
1.46579
1.46702
1.46774
1.46757
1.46702
1.46599
1.46393
1.46069
1.45687
1.45309
1.44953
1.44695
1.44473
1.44185
1.44049
1.44043
1.44026
1.43986
1.43932
1.43846
1.43694
1.43479
1.43252
1.43093
1.43034
1.43034
1.43074
1.4319
1.43282
1.43335
1.4341
1.43523
1.43617
1.43678
1.43713
1.43746
1.4378
1.43817
1.43865
1.4393
1.44042
1.44235
1.44545
1.44969
1.45333
1.45452
1.45459
1.45457
1.45456
1.45452
1.45446
1.45444
1.45444
1.45446
1.45452
0.999999
1.00001
1.00003
1.00027
1.00176
1.00765
1.02311
1.06767
1.14063
1.24717
1.3733
1.45847
1.51381
1.52822
1.52471
1.51908
1.51239
1.50087
1.48105
1.47121
1.46707
1.46714
1.46881
1.4721
1.47269
1.47232
1.47212
1.47249
1.47261
1.47222
1.47124
1.46921
1.4656
1.46117
1.45706
1.45342
1.45069
1.44877
1.44661
1.44516
1.4446
1.44421
1.44366
1.44291
1.44173
1.43983
1.43732
1.43484
1.43333
1.43293
1.4328
1.43292
1.43377
1.43537
1.43615
1.43713
1.43836
1.4395
1.44028
1.44071
1.44091
1.44103
1.44119
1.44154
1.44227
1.44346
1.44536
1.44857
1.45301
1.45634
1.45718
1.4572
1.45718
1.45713
1.45704
1.45693
1.45686
1.45683
1.45679
1.45674
1
1
1
1
1
1
1.00002
1.00034
1.00242
1.01622
1.07798
1.20437
1.33264
1.42464
1.47991
1.50336
1.50005
1.49737
1.50124
1.50035
1.49661
1.49104
1.48761
1.48461
1.48107
1.47743
1.47682
1.47741
1.47865
1.47985
1.47904
1.47651
1.47215
1.46678
1.46216
1.45883
1.45651
1.45497
1.45343
1.45209
1.45089
1.4498
1.44875
1.44736
1.44572
1.44349
1.44052
1.43746
1.4358
1.43584
1.43557
1.43546
1.43589
1.43806
1.44021
1.44176
1.44324
1.44449
1.44554
1.44606
1.44604
1.44581
1.44569
1.44586
1.44656
1.44795
1.45019
1.45371
1.45825
1.46112
1.46157
1.46154
1.46146
1.46134
1.46114
1.46096
1.46085
1.46075
1.46064
1.4605
1
1
1
1
1
1
1
0.999999
1
1
1.00034
1.00562
1.03459
1.12928
1.2512
1.37671
1.45138
1.50251
1.52236
1.52068
1.51768
1.51221
1.50148
1.48907
1.48628
1.48475
1.48473
1.48622
1.4877
1.48668
1.48435
1.48039
1.4758
1.4712
1.46727
1.46413
1.46186
1.46007
1.45827
1.45667
1.455
1.45338
1.45196
1.45028
1.44853
1.44653
1.44403
1.44123
1.43892
1.43849
1.43858
1.4385
1.43896
1.4414
1.44424
1.4458
1.44757
1.44906
1.45004
1.45071
1.45077
1.45076
1.45065
1.45066
1.45109
1.45242
1.45501
1.45907
1.46369
1.46609
1.46629
1.46624
1.46612
1.46593
1.46565
1.46545
1.46532
1.46517
1.46504
1.46486
1
1
1
1
1
1
1
1
1
1
1
0.999997
1.00005
1.00156
1.01351
1.06772
1.19096
1.31627
1.41139
1.45919
1.49414
1.49312
1.49317
1.49686
1.49876
1.49719
1.49409
1.4937
1.49207
1.4893
1.48475
1.48011
1.47618
1.47318
1.47065
1.46748
1.46466
1.46221
1.45989
1.45783
1.45595
1.45422
1.45203
1.45091
1.4497
1.44746
1.44457
1.44165
1.43951
1.43922
1.43916
1.4392
1.44014
1.44352
1.44605
1.44778
1.4498
1.45155
1.45272
1.45362
1.45414
1.45412
1.45407
1.45414
1.45462
1.45607
1.4589
1.46312
1.46736
1.46926
1.46942
1.46939
1.46929
1.46913
1.46888
1.46877
1.46871
1.46861
1.46854
1.46839
1
1
1
1
1
1
1
1
1
1
1
1
1
1
1
1.00036
1.0059
1.03308
1.12525
1.24521
1.36676
1.43465
1.47888
1.50317
1.50395
1.50295
1.49772
1.48845
1.48527
1.48598
1.48465
1.4809
1.4774
1.47421
1.47053
1.46701
1.46391
1.46141
1.45874
1.45642
1.45437
1.45262
1.45181
1.4507
1.44892
1.44596
1.44269
1.43985
1.43829
1.43815
1.43831
1.4384
1.44013
1.4441
1.44614
1.44799
1.45018
1.45206
1.45324
1.45415
1.4549
1.45523
1.45542
1.4557
1.4565
1.45826
1.46127
1.46551
1.46917
1.47047
1.47055
1.47053
1.47048
1.47038
1.47023
1.47021
1.47022
1.47022
1.47023
1.47018
1
1
1
1
1
1
1
1
1
1
1
1
1
1
1
1
0.999998
1.00008
1.00202
1.01706
1.07076
1.19886
1.31597
1.41211
1.45116
1.47526
1.47393
1.47797
1.48376
1.48724
1.48686
1.48355
1.47808
1.47208
1.46636
1.46178
1.4587
1.45703
1.45585
1.45457
1.453
1.45125
1.44935
1.44762
1.44533
1.44198
1.4384
1.43568
1.43504
1.43508
1.4353
1.43664
1.44005
1.44255
1.44409
1.44634
1.44885
1.45092
1.45237
1.45356
1.45434
1.45469
1.45491
1.4555
1.45676
1.45879
1.46202
1.46642
1.46981
1.47061
1.47063
1.47062
1.47058
1.47047
1.47043
1.47044
1.47047
1.4705
1.47053
1.47053
1
1
1
1
1
1
1
1
1
1
1
1
1
1
1
1
1
1
0.999998
1.00002
1.00056
1.00972
1.04504
1.14136
1.26678
1.37703
1.43849
1.46699
1.48643
1.48694
1.4851
1.47867
1.47049
1.46435
1.45926
1.45641
1.45536
1.45434
1.45276
1.45033
1.4476
1.44509
1.44275
1.44099
1.43897
1.43673
1.43422
1.43309
1.43313
1.43323
1.43341
1.43461
1.43778
1.43971
1.4415
1.44423
1.44703
1.44927
1.4508
1.45176
1.45255
1.45305
1.45349
1.45424
1.45559
1.45799
1.46181
1.46645
1.46956
1.47028
1.47033
1.47033
1.4703
1.47018
1.47008
1.47008
1.47009
1.47012
1.47017
1.47023
1
1
1
1
1
1
1
1
1
1
1
1
1
1
1
1
1
1
1
1
0.999999
1.00001
1.00023
1.0039
1.02881
1.09683
1.23249
1.33558
1.42935
1.45676
1.46157
1.46412
1.46111
1.45866
1.45751
1.45675
1.45409
1.45015
1.44661
1.44329
1.44007
1.43704
1.43451
1.4324
1.43199
1.43177
1.43135
1.43074
1.43008
1.42974
1.42982
1.43094
1.43388
1.43551
1.43741
1.44037
1.44349
1.446
1.44785
1.44903
1.44998
1.45089
1.45162
1.45241
1.45392
1.45687
1.46128
1.46592
1.46855
1.46904
1.46903
1.469
1.46894
1.46882
1.46877
1.46879
1.46884
1.46895
1.46906
1.46925
1
1
1
1
1
1
1
1
1
1
1
1
1
1
1
1
1
1
1
1
1
1
1
1
1.00011
1.00166
1.01846
1.07747
1.18654
1.30977
1.40061
1.45321
1.45526
1.45636
1.45472
1.45168
1.44687
1.44067
1.43682
1.43468
1.43324
1.43179
1.43079
1.42998
1.42841
1.4269
1.42672
1.42631
1.42596
1.42582
1.42595
1.42715
1.4294
1.43145
1.43381
1.43667
1.44011
1.44291
1.44496
1.44646
1.44768
1.44882
1.44982
1.45102
1.45283
1.45572
1.45989
1.4641
1.46612
1.46642
1.46647
1.46652
1.46653
1.46651
1.46653
1.46665
1.46683
1.46703
1.46722
1.46753
1
1
1
1
1
1
1
1
1
1
1
1
1
1
1
1
1
1
1
1
1
1
1
1
1
0.999999
1.00005
1.0011
1.0094
1.06152
1.16329
1.29038
1.37116
1.41933
1.4358
1.43509
1.42933
1.42889
1.42921
1.43041
1.43034
1.4297
1.42912
1.4271
1.42372
1.42192
1.42118
1.42092
1.42115
1.42171
1.42257
1.42404
1.42568
1.42828
1.43091
1.43333
1.43627
1.43917
1.44139
1.44329
1.44507
1.44647
1.44772
1.44911
1.451
1.4539
1.45807
1.46187
1.46323
1.46344
1.46358
1.46379
1.46395
1.46406
1.46417
1.46436
1.46458
1.46477
1.4649
1.46514
1
1
1
1
1
1
1
1
1
1
1
1
1
1
1
1
1
1
1
1
1
1
1
1
1
1
1
0.999999
1.00001
1.00075
1.00793
1.04536
1.14353
1.248
1.32584
1.38539
1.41479
1.42083
1.42602
1.42437
1.42258
1.42337
1.42306
1.4208
1.4172
1.41625
1.41655
1.4176
1.41929
1.42141
1.42314
1.42474
1.42562
1.42633
1.42779
1.42979
1.43231
1.43511
1.43752
1.43968
1.44195
1.44397
1.44549
1.44715
1.44947
1.45293
1.45722
1.46032
1.46116
1.46127
1.46133
1.4614
1.46142
1.46145
1.46151
1.46167
1.46191
1.46212
1.46226
1.46251
1
1
1
1
1
1
1
1
1
1
1
1
1
1
1
1
1
1
1
1
1
1
1
1
1
1
1
1
1
0.999999
1.00001
1.00045
1.00541
1.02878
1.10029
1.18639
1.28016
1.33992
1.38681
1.39537
1.39736
1.40546
1.40805
1.41115
1.41394
1.41673
1.41963
1.42196
1.4222
1.42238
1.42282
1.42311
1.423
1.42319
1.42411
1.42584
1.4283
1.43103
1.4337
1.4363
1.43934
1.44192
1.44399
1.44626
1.44923
1.4531
1.45704
1.45909
1.4594
1.45939
1.45936
1.45922
1.45906
1.45905
1.4591
1.45923
1.45946
1.45971
1.45994
1.46028
1
1
1
1
1
1
1
1
1
1
1
1
1
1
1
1
1
1
1
1
1
1
1
1
1
1
1
1
1
1
1
1
1
1.00019
1.00251
1.01365
1.05644
1.13079
1.21165
1.29081
1.33974
1.37745
1.39442
1.40927
1.41602
1.41673
1.41937
1.42053
1.41954
1.41776
1.41745
1.41816
1.41862
1.41977
1.42157
1.42409
1.42755
1.43071
1.43361
1.43639
1.43885
1.44131
1.44374
1.44623
1.44912
1.4528
1.45611
1.45732
1.45743
1.45747
1.45744
1.45737
1.45738
1.45748
1.45765
1.45778
1.45792
1.4581
1.45826
1.45847
1
1
1
1
1
1
1
1
1
1
1
1
1
1
1
1
1
1
1
1
1
1
1
1
1
1
1
1
1
1
1
1
1
1
1
1.00005
1.00078
1.00542
1.02227
1.06846
1.14151
1.21695
1.28811
1.34049
1.375
1.38679
1.40265
1.40597
1.40523
1.40981
1.41276
1.41615
1.42043
1.42293
1.42527
1.42639
1.42841
1.43059
1.43285
1.43534
1.43799
1.44015
1.4425
1.44522
1.44868
1.45258
1.45476
1.45533
1.45553
1.45576
1.45598
1.45617
1.45632
1.45651
1.45667
1.4569
1.45692
1.45687
1.4569
1.45698
1
1
1
1
1
1
1
1
1
1
1
1
1
1
1
1
1
1
1
1
1
1
1
1
1
1
1
1
1
1
1
1
1
1
1
1
1
1.00001
1.00013
1.00124
1.00716
1.02532
1.0739
1.13955
1.2228
1.28805
1.33884
1.3749
1.39615
1.41148
1.4145
1.41859
1.42156
1.42145
1.42334
1.42382
1.42484
1.42688
1.42983
1.43282
1.43632
1.43956
1.4428
1.44625
1.4499
1.45317
1.45477
1.45526
1.45541
1.45549
1.45557
1.45553
1.45541
1.45538
1.45551
1.45569
1.45569
1.45569
1.45578
1.45598
1
1
1
1
1
1
1
1
1
1
1
1
1
1
1
1
1
1
1
1
1
1
1
1
1
1
1
1
1
1
1
1
1
1
1
1
1
1
1
1
1.00002
1.00018
1.00152
1.00739
1.02713
1.0759
1.14008
1.22083
1.2867
1.34057
1.37126
1.39052
1.40398
1.40442
1.41001
1.41253
1.41731
1.4227
1.42767
1.4324
1.4381
1.44231
1.44635
1.45065
1.45312
1.45478
1.45526
1.45523
1.45494
1.45448
1.45428
1.45425
1.4541
1.45395
1.45407
1.45432
1.45452
1.45469
1.45488
1.45524
1
1
1
1
1
1
1
1
1
1
1
1
1
1
1
1
1
1
1
1
1
1
1
1
1
1
1
1
1
1
1
1
1
1
1
1
1
1
1
1
1
1
1
1.00002
1.00021
1.00166
1.00758
1.02774
1.07509
1.13909
1.22198
1.28151
1.33797
1.37077
1.39492
1.41073
1.41812
1.42477
1.42971
1.43377
1.43912
1.44247
1.44533
1.44961
1.45219
1.45213
1.45241
1.45273
1.45271
1.4523
1.45241
1.45283
1.45315
1.45336
1.45358
1.45391
1.45433
1.4546
1.4546
1.45462
1
1
1
1
1
1
1
1
1
1
1
1
1
1
1
1
1
1
1
1
1
1
1
1
1
1
1
1
1
1
1
1
1
1
1
1
1
1
1
1
1
1
1
1
1
1
1.00002
1.00023
1.00168
1.00755
1.02775
1.07201
1.13532
1.21665
1.27693
1.33579
1.36908
1.39558
1.40912
1.41926
1.42833
1.43416
1.43615
1.44237
1.4472
1.44884
1.45019
1.45121
1.45209
1.45296
1.45356
1.4539
1.45426
1.45423
1.45407
1.45376
1.45376
1.45388
1.45383
1.4538
1
1
1
1
1
1
1
1
1
1
1
1
1
1
1
1
1
1
1
1
1
1
1
1
1
1
1
1
1
1
1
1
1
1
1
1
1
1
1
1
1
1
1
1
1
1
1
1
1
1.00002
1.00023
1.00158
1.00718
1.02641
1.06673
1.13073
1.20601
1.27188
1.32767
1.37049
1.39482
1.42192
1.43255
1.4414
1.44893
1.45137
1.45354
1.45385
1.45439
1.45445
1.45355
1.45298
1.45282
1.45275
1.45255
1.45228
1.45226
1.45242
1.45268
1.45303
1
1
1
1
1
1
1
1
1
1
1
1
1
1
1
1
1
1
1
1
1
1
1
1
1
1
1
1
1
1
1
1
1
1
1
1
1
1
1
1
1
1
1
1
1
1
1
1
1
1
1
1
1.00002
1.00022
1.00138
1.00637
1.02242
1.05819
1.11716
1.18634
1.25524
1.30975
1.36216
1.38961
1.41611
1.42831
1.43867
1.44169
1.44311
1.44716
1.4464
1.44747
1.44794
1.44914
1.45052
1.45143
1.45217
1.45291
1.45322
1.45343
1
1
1
1
1
1
1
1
1
1
1
1
1
1
1
1
1
1
1
1
1
1
1
1
1
1
1
1
1
1
1
1
1
1
1
1
1
1
1
1
1
1
1
1
1
1
1
1
1
1
1
1
1
1
1
1.00002
1.00016
1.001
1.00462
1.01575
1.04209
1.0867
1.14856
1.21291
1.27172
1.32766
1.36465
1.40072
1.4171
1.43402
1.44209
1.44749
1.44953
1.45118
1.45251
1.45354
1.45358
1.45309
1.45269
1.45233
1
1
1
1
1
1
1
1
1
1
1
1
1
1
1
1
1
1
1
1
1
1
1
1
1
1
1
1
1
1
1
1
1
1
1
1
1
1
1
1
1
1
1
1
1
1
1
1
1
1
1
1
1
1
1
1
1
1
1.00001
1.00008
1.00048
1.00212
1.00747
1.02075
1.04802
1.09548
1.15677
1.22352
1.29171
1.34054
1.38504
1.40997
1.43182
1.43861
1.44257
1.44703
1.44761
1.44801
1.44883
1.44977
1
1
1
1
1
1
1
1
1
1
1
1
1
1
1
1
1
1
1
1
1
1
1
1
1
1
1
1
1
1
1
1
1
1
1
1
1
1
1
1
1
1
1
1
1
1
1
1
1
1
1
1
1
1
1
1
1
1
1
1
1
1
1.00002
1.00011
1.00058
1.00249
1.00863
1.02522
1.06277
1.12026
1.19369
1.26728
1.3288
1.37796
1.40843
1.42951
1.43968
1.44734
1.45055
1.45118
1
1
1
1
1
1
1
1
1
1
1
1
1
1
1
1
1
1
1
1
1
1
1
1
1
1
1
1
1
1
1
1
1
1
1
1
1
1
1
1
1
1
1
1
1
1
1
1
1
1
1
1
1
1
1
1
1
1
1
1
1
1
1
1
1
1
1.00002
1.00018
1.00106
1.00464
1.01671
1.0472
1.10363
1.18072
1.26022
1.32696
1.3799
1.41291
1.43169
1.44301
1
1
1
1
1
1
1
1
1
1
1
1
1
1
1
1
1
1
1
1
1
1
1
1
1
1
1
1
1
1
1
1
1
1
1
1
1
1
1
1
1
1
1
1
1
1
1
1
1
1
1
1
1
1
1
1
1
1
1
1
1
1
1
1
1
1
1
1
1
1.00001
1.00009
1.00063
1.00338
1.01396
1.04422
1.10348
1.18683
1.27179
1.33682
1.40684
1
1
1
1
1
1
1
1
1
1
1
1
1
1
1
1
1
1
1
1
1
1
1
1
1
1
1
1
1
1
1
1
1
1
1
1
1
1
1
1
1
1
1
1
1
1
1
1
1
1
1
1
1
1
1
1
1
1
1
1
1
1
1
1
1
1
1
1
1
1
1
1
1
1.00006
1.00058
1.00352
1.01584
1.0527
1.11605
1.26664
1
1
1
1
1
1
1
1
1
1
1
1
1
1
1
1
1
1
1
1
1
1
1
1
1
1
1
1
1
1
1
1
1
1
1
1
1
1
1
1
1
1
1
1
1
1
1
1
1
1
1
1
1
1
1
1
1
1
1
1
1
1
1
1
1
1
1
1
1
1
1
1
1
1
1
1.00001
1.00008
1.00088
1.00478
1.0566
1
1
1
1
1
1
1
1
1
1
1
1
1
1
1
1
1
1
1
1
1
1
1
1
1
1
1
1
1
1
1
1
1
1
1
1
1
1
1
1
1
1
1
1
1
1
1
1
1
1
1
1
1
1
1
1
1
1
1
1
1
1
1
1
1
1
1
1
1
1
1
1
1
1
1
1
1
1
1.00001
1.00151
1
1
1
1
1
1
1
1
1
1
1
1
1
1
1
1
1
1
1
1
1
1
1
1
1
1
1
1
1
1
1
1
1
1
1
1
1
1
1
1
1
1
1
1
1
1
1
1
1
1
1
1
1
1
1
1
1
1
1
1
1
1
1
1
1
1
1
1
1
1
1
1
1
1
1
1
1
1
1
1
1
1
1
1
1
1
1
1
1
1
1
1
1
1
1
1
1
1
1
1
1
1
1
1
1
1
1
1
1
1
1
1
1
1
1
1
1
1
1
1
1
1
1
1
1
1
1
1
1
1
1
1
1
1
1
1
1
1
1
1
1
1
1
1
1
1
1
1
1
1
1
1
1
1
1
1
1
1
1
1
1
1
1
1
1
1
1
1
1
1
1
1
1
1
1
1
1
1
1
1
1
1
1
1
1
1
1
1
1
1
1
1
1
1
1
1
1
1
1
1
1
1
1
1
1
1
1
1
1
1
1
1
1
1
1
1
1
1
1
1
1
1
1
1
1
1
1
1
1
1
1
1
1
1
1
1
1
1
1
1
1
1
1
1
1
1
1
1
1
1
1
1
1
1
1
1
1
1
1
1
1
1
1
1
1
1
1
1
1
1
1
1
1
1
1
1
1
1
1
1
1
1
1
1
1
1
1
1
1
1
1
1
1
1
1
1
1
1
1
1
1
1
1
1
1
1
1
1
1
1
1
1
1
1
1
1
1
1
1
1
1
1
1
1
1
1
1
1
1
1
1
1
1
1
1
1
1
1
1
1
1
1
1
1
1
1
1
1
1
1
1
1
1
1
1
1
1
1
1
1
1
1
1
1
1
1
1
1
1
1
1
1
1
1
1
1
1
1
1
1
1
1
1
1
1
1
1
1
1
1
1
1
1
1
1
1
1
1
1
1
1
1
1
1
1
1
1
1
1
1
1
1
1
1
1
1
1
1
1
1
1
1
1
1
1
1
1
1
1
1
1
1
1
1
1
1
1
1
1
1
1
1
1
1
1
1
1
1
1
1
1
1
1
1
1
1
1
1
1
1
1
1
1
1
1
1
1
1
1
1
1
1
1
1
1
1
1
1
1
1
1
1
1
1
1
1
1
1
1
1
1
1
1
1
1
1
1
1
1
1
1
1
1
1
1
1
1
1
1
1
1
1
1
1
1
1
1
1
1
1
1
1
1
1
1
1
1
1
1
1
1
1
1
1
1
1
1
1
1
1
1
1
1
1
1
1
1
1
1
1
1
1
1
1
1
1
1
1
1
1
1
1
1
1
1
1
1
1
1
1
1
1
1
1
1
1
1
1
1
1
1
1
1
1
1
1
1
1
1
1
1
1
1
1
1
1
1
1
1
1
1
1
1
1
1
1
1
1
1
1
1
1
1
1
1
1
1
1
1
1
1
1
1
1
1
1
1
1
1
1
1
1
1
1
1
1
1
1
1
1
1
1
1
1
1
1
1
1
1
1
1
1
1
1
1
1
1
1
1
1
1
1
1
1
1
1
1
1
1
1
1
1
1
1
1
1
1
1
1
1
1
1
1
1
1
1
1
1
1
1
1
1
1
1
1
1
1
1
1
1
1
1
1
1
1
1
1
1
1
1
1
1
1
1
1
1
1
1
1
1
1
1
1
1
1
1
1
1
1
1
1
1
1
1
1
1
1
1
1
1
1
1
1
1
1
1
1
1
1
1
1
1
1
1
1
1
1
1
1
1
1
1
1
1
1
1
1
1
1
1
1
1
1
1
1
1
1
1
1
1
1
1
1
1
1
1
1
1
1
1
1
1
1
1
1
1
1
1
1
1
)
;

boundaryField
{
    inlet
    {
        type            fixedValue;
        value           uniform 1;
    }
    outlet
    {
        type            zeroGradient;
    }
    bottom
    {
        type            symmetryPlane;
    }
    top
    {
        type            symmetryPlane;
    }
    obstacle
    {
        type            zeroGradient;
    }
    defaultFaces
    {
        type            empty;
    }
}


// ************************************************************************* //
