/*--------------------------------*- C++ -*----------------------------------*\
| =========                 |                                                 |
| \\      /  F ield         | OpenFOAM: The Open Source CFD Toolbox           |
|  \\    /   O peration     | Version:  2206                                  |
|   \\  /    A nd           | Website:  www.openfoam.com                      |
|    \\/     M anipulation  |                                                 |
\*---------------------------------------------------------------------------*/
FoamFile
{
    version     2.0;
    format      ascii;
    arch        "LSB;label=32;scalar=64";
    class       volScalarField;
    location    "0.06";
    object      T;
}
// * * * * * * * * * * * * * * * * * * * * * * * * * * * * * * * * * * * * * //

dimensions      [0 0 0 1 0 0 0];

internalField   nonuniform List<scalar> 
4800
(
1
1
1
1
1
1
1
1
1
1
1
1
1
1
1
1
1
1
1
1
1
1
1
1
1
1
1
1
1
1
1
1
1
1
1
1
1
1
1
1
1
1
1
1
1
1
1
1
1
1
1
1
1
1
1
1
1
1
1
1
1
1
1
1
1
1
1
1
1
1
1
1
1
1
1
1
1
1
1
1
1
1
1
1
1
1
1
1
1
1
1
1
1
1
1
1
1
1
1
1
1
1
1
1
1
1
1
1
1
1
1
1
1
1
1
1
1
1
1
1
1
1
1
1
1
1
1
1
1
1
1
1
1
1
1
1
1
1
1
1
1
1
1
1
1
1
1
1
1
1
1
1
1
1
1
1
1
1
1
1
1
1
1
1
1
1
1
1
1
1
1
1
1
1
1
1
1
1
1
1
1
1
1
1
1
1
1
1
1
1
1
1
1
1
1
1
1
1
1
1
1
1
1
1
1
1
1
1
1
1
1
1
1
1
1
1
1
1
1
1
1
1
1
1
1
1
1
1
1
1
1
1
1
1
1
1
1
1
1
1
1
1
1
1
1
1
1
1
1
1
1
1
1
1
1
1
1
1
1
1
1
1
1
1
1
1
1
1
1
1
1
1
1
1
1
1
1
1
1
1
1
1
1
1
1
1
1
1
1
1
1
1
1
1
1
1
1
1
1
1
1
1
1
1
1
1
1
1
1
1
1
1
1
1
1
1
1
1
1
1
1
1
1
1
1
1
1
1
1
1
1
1
1
1
1
1
1
1
1
1
1
1
1
1
1
1
1
1
1
1
1
1
1
1
1
1
1
1
1
1
1
1
1
1
1
1
1
1
1
1
1
1
1
1
1
1
1
1
1
1
1
1
1
1
1
1
1
1
1
1
1
1
1
1
1
1
1
1
1
1
1
1
1
1
1
1
1
1
1
1
1
1
1
1
1
1
1
1
1
1
1
1
1
1
1
1
1
1
1
1
1
1
1
1
1
1
1
1
1
1
1
1
1
1
1
1
1
1
1
1
1
1
1
1
1
1
1
1
1
1
1
1
1
1
1
1
1
1
1
1
1
1
1
1
1
1
1
1
1
1
1
1
1
1
1
1
1
1
1
1
1
1
1
1
1
1
1
1
1
1
1
1
1
1
1
1
1
1
1
1
1
1
1
1
1
1
1
1
1
1
1
1
1
1
1
1
1
1
1
1
1
1
1
1
1
1
1
1
1
1
1
1
1
1
1
1
1
1
1
1
1
1
1
1
1
1
1
1
1
1
1
1
1
1
1
1
1
1
1
1
1
1
1
1
1
1
1
1
1
1
1
1
1
1
1
1
1
1
1
1
1
1
1
1
1
1
1
1
1
1
1
1
1
1
1
1
1
1
1
1
1
1
1
1
1
1
1
1
1
1
1
1
1
1
1
1
1
1
1
1
1
1
1
1
1
1
1
1
1
1
1
1
1
1
1
1
1
1
1
1
1
1
1
1
1
1
1
1
1
1
1
1
1
1
1
1
1
1
1
1
1
1
1
1
1
1
1
1
1
1
1
1
1
1
1
1
1
1
1
1
1
1
1
1
1
1
1
1
1
1
1
1
1
1
1
1
1
1
1
1
1
1
1
1
1
1
1
1
1
1
1
1
1
1
1
1
1
1
1
1
1
1
1
1
1
1
1
1
1
1
1
1
1
1
1
1
1
1
1
1
1
1
1
1
1
1
1
1
1
1
1
1
1
1
1
1
1
1
1
1
1
1
1
1
1
1
1
1
1
1
1
1
1
1
1
1
1
1
1
1
1
1
1
1
1
1
1
1
1
1
1
1
1
1
1
1
1
1
1
1
1
1
1
1
1
1
1
1
1
1
1
1
1
1
1
1
1
1
1
1
1
1
1
1
1
1
1
1
1
1
1
1
1
1
1
1
1
1
1
1
1
1
1
1
1
1
1
1
1
1
1
1
1
1
1
1
1
1
1
1
1
1
1
1
1
1
1
1
1
1
1
1
1
1
1
1
1
1
1
1
1
1
1
1
1
1
1
1
1
1
1
1
1
1
1
1
1
1
1
1
1
1
1
1
1
1
1
1
1
1
1
1
1
1
1
1
1
1
1
1
1
1
1
1
1
1
1
1
1
1
1
1
1
1
1
1
1
1
1
1
1
1
1
1
1
1
1
1
1
1
1
1
1
1
1
1
1
1
1
1
1
1
1
1
1
1
1
1
1
1
1
1
1
1
1
1
1
1
1
1
1
1
1
1
1
1
1
1
1
1
1
1
1
1
1
1
1
1
1
1
1
1
1
1
1
1
1
1
1
1
1
1
1
1
1
1
1
1
1
1
1
1
1
1
1
1
1
1
1
1
1
1
1
1
1
1
1
1
1
1
1
1
1
1
1
1
1
1
1
1
1
1
1
1
1
1
1
1
1
1
1
1
1
1
1
1
1
1
1
1
1
1
1
1
1
1
1
1
1
1
1
1
1
1
1
1
1
1
1
1
1
1
1
1
1
1
1
1
1
1
1
1
1
1
1
1
1
1
1
1
1
1
1
1
1
1
1
1
1
1
1
1
1
1
1
1
1
1
1
1
1
1
1
1
1
1
1
1
1
1
1
1
1
1
1
1
1
1
1
1
1
1
1
1
1
1
1
1
1
1
1
1
1
1
1
1
1
1
1
1
1
1
1
1
1
1
1
1
1
1
1
1
1
1
1
1
1
1
1
1
1
1
1
1
1
1
1
1
1
1
1
1
1
1
1
1
1
1
1
1
1
1
1
1
1
1
1
1
1
1
1
1
1
1
1
1
1
1
1
1
1
1
1
1
1
1
1
1
1
1
1
1
1
1
1
1
1
1
1
1
1
1
1
1
1
1
1
1
1
1
1
1
1
1
1
1
1
1
1
1
1
1
1
1
1
1
1
1
1
1
1
1
1
1
1
1
1
1
1
1
1
1
1
1
1
1
1
1
1
1
1
1
1
1
1
1
1
1
1
1
1
1
1
1
1
1
1
1
1
1
1
1
1
1
1
1
1
1
1
1
1
1
1
1
1
1
1
1
1
1
1
1
1
1
1
1
1
1
1
1
1
1
1
1
1
1
1
1
1
1
1
1
1
1
1
1
1
1
1
1
1
1
1
1
1
1
1
1
1
1
1
1
1
1
1
1
1
1
1
1
1
1
1
1
1
1
1
1
1
1
1
1
1
1
1
1
1
1
1
1
1
1
1
1
1
1
1
1
1
1
1
1
1
1
1
1
1
1
1
1
1
1
1
1
1
1
1
1
1
1
1
1
1
1
1
1
1
1
1
1
1
1
1
1
1
1
1
1
1
1
1
1
1
1
1
1
1
1
1
1
1
1
1
1
1
1
1
1
1
1
1
1
1
1
1
1
1
1
1
1
1
1
1
1
1
1
1
1
1
1
1
1
1
1
1
1
1
1
1
1
1
1
1
1
1
1
1
1
1
1
1
1
1
1
1
1
1
1
1
1
1
1
1
1
1
1
1
1
1
1
1
1
1
1
1
1
1
1
1
1
1
1
1
1
1
1
1
1
1
1
1
1
1
1
1
1
1
1
1
1
1
1
1
1
1
1
1
1
1
1
1
1
1
1
1
1
1
1
1
1
1.07126
1.16526
1.25805
1.35921
1.45526
1.52531
1.59074
1.67725
1.75282
1.77705
1.79586
1.82921
1.83586
1.82725
1.80365
1.7626
1.715
1.68114
1.66061
1.64302
1.63113
1.62045
1.61714
1.61824
1.62252
1.63125
1.6435
1.65332
1.65811
1.65825
1.65706
1.65514
1.65545
1.65829
1.66056
1.66193
1.66245
1.66239
1.66307
1.66491
1.66683
1.66863
1.66929
1.669
1.6685
1.66741
1.66421
1.65964
1.65753
1.65582
1.65246
1.6501
1.6491
1.64869
1.64727
1.64514
1.64378
1.64347
1.6432
1.64299
1.64278
1.64236
1.6416
1.64005
1.63815
1.63835
1.63949
1.63875
1.63776
1.63751
1.6378
1.63976
1.64088
1.64132
1.64191
1.6424
1.64263
1.64318
1.64345
1.64355
0.999957
0.999867
1.00439
1.01002
1.04044
1.10967
1.16813
1.22511
1.31009
1.40161
1.44702
1.49344
1.55643
1.5846
1.61399
1.62601
1.65259
1.69078
1.69563
1.69151
1.68989
1.68818
1.67989
1.6645
1.65817
1.65747
1.65638
1.65386
1.65299
1.65471
1.65633
1.6585
1.66205
1.66572
1.66712
1.66741
1.66727
1.66643
1.66517
1.66519
1.66631
1.66804
1.67056
1.6722
1.67218
1.67151
1.66993
1.66733
1.66378
1.6598
1.65514
1.65032
1.64816
1.64689
1.64599
1.64543
1.64551
1.64556
1.64546
1.6452
1.64491
1.64438
1.64321
1.64099
1.63821
1.63783
1.63863
1.63845
1.63768
1.63758
1.63801
1.64017
1.6417
1.64251
1.64327
1.64381
1.6442
1.64437
1.64426
1.64429
1
1
1
1
1
1
1
0.999713
1.00274
1.02127
1.0673
1.12636
1.2446
1.3745
1.49541
1.63453
1.6957
1.75419
1.76452
1.7589
1.75135
1.74385
1.73367
1.71712
1.69452
1.68106
1.67063
1.66424
1.66476
1.6677
1.6699
1.67336
1.67794
1.68081
1.68088
1.68077
1.6805
1.67996
1.67846
1.67664
1.67655
1.67657
1.67706
1.6791
1.6815
1.68234
1.68192
1.67923
1.67472
1.67001
1.66506
1.65868
1.65424
1.6521
1.65101
1.65104
1.65164
1.65205
1.65202
1.65168
1.65116
1.65035
1.64886
1.64629
1.64305
1.64223
1.64266
1.64262
1.64171
1.64161
1.64202
1.64411
1.64588
1.64709
1.64811
1.6488
1.64913
1.64915
1.64884
1.64846
1
1
1
1
1
1
1
1
1
1
1
0.999822
1.00034
1.01251
1.05461
1.19988
1.37085
1.52572
1.6369
1.67678
1.72632
1.72968
1.72523
1.72564
1.73156
1.73001
1.72205
1.70983
1.7036
1.70026
1.69611
1.69048
1.68786
1.68819
1.68973
1.69252
1.69547
1.69673
1.69666
1.6956
1.69368
1.69104
1.68965
1.68943
1.6904
1.69285
1.69439
1.6936
1.69027
1.6858
1.68035
1.67131
1.66492
1.66254
1.66168
1.66168
1.66211
1.66215
1.66194
1.66153
1.66093
1.65981
1.65786
1.65481
1.65106
1.64923
1.64931
1.64939
1.64846
1.64831
1.64875
1.65123
1.65297
1.65469
1.65619
1.65685
1.65699
1.65691
1.65662
1.65595
1
1
1
1
1
1
1
1
1
1
1
1
1
1
1
0.999658
1.00607
1.03917
1.16863
1.32766
1.46427
1.59087
1.65978
1.73657
1.76354
1.76002
1.7577
1.7526
1.74407
1.7335
1.71802
1.70193
1.69648
1.69716
1.70062
1.70479
1.70781
1.70962
1.70974
1.70898
1.70664
1.7033
1.70243
1.70234
1.70226
1.703
1.70439
1.70433
1.70204
1.69781
1.69125
1.68133
1.67607
1.67424
1.67341
1.67324
1.67341
1.67324
1.67256
1.67176
1.67089
1.66915
1.66595
1.66174
1.65675
1.65445
1.65496
1.65528
1.65444
1.65432
1.65562
1.65855
1.66054
1.66344
1.66587
1.66646
1.66643
1.66622
1.66572
1.66462
1
1
1
1
1
1
1
1
1
1
1
1
1
1
1
1
1
1
0.99971
1.00333
1.02359
1.13269
1.28575
1.42923
1.55572
1.6313
1.70674
1.72885
1.72837
1.72724
1.72544
1.71723
1.71247
1.7119
1.71177
1.7133
1.715
1.71458
1.71294
1.71069
1.70885
1.70698
1.70693
1.70788
1.7093
1.71007
1.71001
1.7096
1.70711
1.70186
1.69467
1.68626
1.68345
1.68249
1.68203
1.68228
1.68245
1.68165
1.67995
1.67816
1.67616
1.67325
1.66931
1.66552
1.66173
1.65852
1.65808
1.65866
1.65851
1.65868
1.66059
1.66313
1.66586
1.67004
1.67338
1.6743
1.67431
1.67417
1.67367
1.67239
1
1
1
1
1
1
1
1
1
1
1
1
1
1
1
1
1
1
1
1
1
0.999774
1.00196
1.01796
1.11291
1.2484
1.39501
1.52572
1.61797
1.70106
1.71928
1.72925
1.7295
1.72752
1.72167
1.70983
1.70159
1.7031
1.70725
1.70826
1.70848
1.7107
1.71285
1.71308
1.71117
1.70984
1.70963
1.70895
1.7064
1.70142
1.69507
1.6889
1.68759
1.6873
1.68688
1.68652
1.68613
1.68474
1.68258
1.6801
1.67695
1.67288
1.66862
1.66565
1.66295
1.66108
1.6604
1.65915
1.65898
1.65968
1.66206
1.66442
1.66808
1.67307
1.67705
1.67846
1.67865
1.67857
1.67823
1.67736
1
1
1
1
1
1
1
1
1
1
1
1
1
1
1
1
1
1
1
1
1
1
1
1
0.999867
1.00124
1.01593
1.1048
1.22286
1.37212
1.5022
1.61562
1.68177
1.69768
1.69796
1.69183
1.69068
1.69592
1.70615
1.70973
1.71081
1.71146
1.71111
1.70942
1.7088
1.70784
1.70529
1.70351
1.70126
1.69757
1.69401
1.69082
1.68881
1.68756
1.68689
1.68591
1.68448
1.68281
1.68007
1.67727
1.67386
1.67096
1.66883
1.6666
1.66383
1.6611
1.65943
1.65788
1.65787
1.65903
1.66024
1.66291
1.66726
1.67263
1.67725
1.67949
1.68016
1.68016
1.67994
1.67935
1
1
1
1
1
1
1
1
1
1
1
1
1
1
1
1
1
1
1
1
1
1
1
1
1
0.999999
1
0.999944
1.00095
1.01714
1.09734
1.21963
1.38189
1.50629
1.62736
1.66992
1.67897
1.69264
1.70317
1.70297
1.70119
1.69801
1.69713
1.69821
1.70108
1.70204
1.7011
1.6994
1.69668
1.69342
1.69012
1.68763
1.68647
1.68484
1.6825
1.68073
1.67918
1.67746
1.67637
1.67471
1.67175
1.66776
1.66476
1.66273
1.66053
1.65755
1.6547
1.65414
1.65472
1.65576
1.65802
1.66216
1.66736
1.67259
1.67751
1.67991
1.68067
1.68075
1.68055
1.68014
1
1
1
1
1
1
1
1
1
1
1
1
1
1
1
1
1
1
1
1
1
1
1
1
1
1
1
1
0.999998
1.00001
0.99999
1.00142
1.02623
1.10123
1.2265
1.40158
1.51107
1.61801
1.65801
1.6582
1.66924
1.67419
1.67728
1.68693
1.69789
1.70088
1.69911
1.69545
1.68987
1.68454
1.68143
1.68077
1.68085
1.68043
1.67817
1.67569
1.67415
1.67254
1.67051
1.66802
1.66475
1.66023
1.65693
1.65574
1.65389
1.65064
1.64908
1.64917
1.65056
1.6522
1.65468
1.65943
1.66523
1.67005
1.67494
1.67796
1.67939
1.67963
1.67951
1.67927
1
1
1
1
1
1
1
1
1
1
1
1
1
1
1
1
1
1
1
1
1
1
1
1
1
1
1
1
1
1
1
0.999997
1.00001
1.00008
1.00226
1.03391
1.11645
1.25178
1.41272
1.53089
1.62189
1.65222
1.66797
1.68337
1.69286
1.69292
1.69052
1.68262
1.67526
1.67014
1.67043
1.67121
1.67301
1.67409
1.67202
1.66812
1.66493
1.66221
1.65881
1.65601
1.65395
1.65129
1.64933
1.64857
1.64727
1.6448
1.64334
1.64328
1.64439
1.64619
1.64897
1.65406
1.66006
1.6647
1.66953
1.67341
1.67579
1.67659
1.67662
1.67674
1
1
1
1
1
1
1
1
1
1
1
1
1
1
1
1
1
1
1
1
1
1
1
1
1
1
1
1
1
1
1
1
1
1
1
0.999981
1.00028
1.00395
1.04852
1.15905
1.29468
1.44214
1.57047
1.63068
1.66328
1.66779
1.6699
1.66828
1.66507
1.66292
1.66381
1.66503
1.66552
1.66633
1.66386
1.65799
1.65247
1.64842
1.64514
1.64398
1.64345
1.64254
1.64164
1.64066
1.63997
1.63933
1.63826
1.63788
1.63852
1.64008
1.64272
1.64753
1.65299
1.65765
1.66297
1.66776
1.67075
1.67207
1.67253
1.67315
1
1
1
1
1
1
1
1
1
1
1
1
1
1
1
1
1
1
1
1
1
1
1
1
1
1
1
1
1
1
1
1
1
1
1
1
0.999999
0.999993
1.00002
1.00112
1.01017
1.07716
1.20601
1.36671
1.49373
1.58988
1.64782
1.66961
1.66915
1.66386
1.65675
1.65348
1.65234
1.65365
1.65298
1.64734
1.64102
1.63806
1.63715
1.63712
1.63727
1.63557
1.63301
1.63269
1.63314
1.63331
1.63299
1.63283
1.63329
1.63478
1.63787
1.64259
1.64694
1.65066
1.65572
1.66111
1.66464
1.66649
1.66738
1.66861
1
1
1
1
1
1
1
1
1
1
1
1
1
1
1
1
1
1
1
1
1
1
1
1
1
1
1
1
1
1
1
1
1
1
1
1
1
1
1
1
0.999987
1.00017
1.00299
1.0314
1.12728
1.27422
1.42545
1.54821
1.64352
1.65018
1.63855
1.62685
1.62958
1.63697
1.64263
1.64167
1.63691
1.63355
1.63138
1.63134
1.63145
1.62865
1.62533
1.62515
1.62653
1.62865
1.62912
1.62926
1.62956
1.63052
1.63323
1.63809
1.64197
1.64467
1.64842
1.65391
1.65788
1.66014
1.66131
1.6631
1
1
1
1
1
1
1
1
1
1
1
1
1
1
1
1
1
1
1
1
1
1
1
1
1
1
1
1
1
1
1
1
1
1
1
1
1
1
1
1
0.999999
0.999999
0.999996
1.00001
1.00083
1.011
1.07349
1.20706
1.38563
1.51847
1.5955
1.61369
1.61542
1.62598
1.63395
1.63327
1.62804
1.62224
1.62088
1.62327
1.62588
1.62352
1.62
1.61962
1.62138
1.62567
1.62913
1.62961
1.62852
1.62775
1.62917
1.63319
1.63756
1.63987
1.64286
1.64773
1.65222
1.65497
1.65621
1.65798
1
1
1
1
1
1
1
1
1
1
1
1
1
1
1
1
1
1
1
1
1
1
1
1
1
1
1
1
1
1
1
1
1
1
1
1
1
1
1
1
1
1
1
1
1
0.999992
1.00022
1.00533
1.04007
1.15751
1.30754
1.44791
1.51243
1.55227
1.5973
1.61389
1.60991
1.59906
1.6002
1.60987
1.62186
1.62499
1.62437
1.6219
1.6217
1.62452
1.6285
1.62911
1.62745
1.62445
1.6247
1.62831
1.633
1.63614
1.63888
1.64253
1.64769
1.65096
1.65212
1.65397
1
1
1
1
1
1
1
1
1
1
1
1
1
1
1
1
1
1
1
1
1
1
1
1
1
1
1
1
1
1
1
1
1
1
1
1
1
1
1
1
1
1
1
1
1
0.999999
1
0.999995
1.00005
1.00231
1.01878
1.07982
1.21029
1.32643
1.4257
1.51963
1.58599
1.59883
1.59938
1.60775
1.62387
1.62881
1.62806
1.62279
1.61725
1.61798
1.62428
1.62818
1.62679
1.62324
1.62234
1.62419
1.62872
1.63277
1.63572
1.63863
1.64277
1.64726
1.64899
1.65091
1
1
1
1
1
1
1
1
1
1
1
1
1
1
1
1
1
1
1
1
1
1
1
1
1
1
1
1
1
1
1
1
1
1
1
1
1
1
1
1
1
1
1
1
1
1
1
1
1
1
1
1.00044
1.00548
1.02729
1.10788
1.22008
1.34303
1.47138
1.53408
1.55525
1.58295
1.61442
1.62106
1.61973
1.61161
1.61003
1.617
1.6271
1.62993
1.62904
1.62537
1.62357
1.6251
1.62966
1.6338
1.63625
1.63881
1.64356
1.64607
1.64795
1
1
1
1
1
1
1
1
1
1
1
1
1
1
1
1
1
1
1
1
1
1
1
1
1
1
1
1
1
1
1
1
1
1
1
1
1
1
1
1
1
1
1
1
1
1
1
1
1
1
1
1
0.999998
1.00004
1.00109
1.00755
1.04069
1.11552
1.24465
1.36803
1.45193
1.5248
1.58953
1.62139
1.62026
1.61396
1.61743
1.62715
1.63098
1.63054
1.62668
1.62005
1.61955
1.62463
1.63219
1.63445
1.63591
1.6396
1.64313
1.64632
1
1
1
1
1
1
1
1
1
1
1
1
1
1
1
1
1
1
1
1
1
1
1
1
1
1
1
1
1
1
1
1
1
1
1
1
1
1
1
1
1
1
1
1
1
1
1
1
1
1
1
1
1
1
1
0.999998
1.00012
1.00125
1.0113
1.04263
1.13671
1.27214
1.38663
1.49421
1.58224
1.59511
1.59618
1.60404
1.62117
1.62662
1.62579
1.62027
1.61719
1.62029
1.62792
1.63447
1.63756
1.63828
1.64033
1.6457
1
1
1
1
1
1
1
1
1
1
1
1
1
1
1
1
1
1
1
1
1
1
1
1
1
1
1
1
1
1
1
1
1
1
1
1
1
1
1
1
1
1
1
1
1
1
1
1
1
1
1
1
1
1
1
1
1
0.999999
1.00001
1.00014
1.0025
1.01563
1.07271
1.17518
1.31739
1.44931
1.53177
1.56017
1.59174
1.62097
1.62918
1.62829
1.62418
1.62077
1.62269
1.63147
1.6378
1.63984
1.64045
1.64473
1
1
1
1
1
1
1
1
1
1
1
1
1
1
1
1
1
1
1
1
1
1
1
1
1
1
1
1
1
1
1
1
1
1
1
1
1
1
1
1
1
1
1
1
1
1
1
1
1
1
1
1
1
1
1
1
1
1
1
1
1
1.00002
1.00056
1.00439
1.03071
1.10934
1.23001
1.37857
1.48221
1.53667
1.58635
1.62119
1.62481
1.61764
1.61201
1.61986
1.63494
1.64129
1.64135
1.64379
1
1
1
1
1
1
1
1
1
1
1
1
1
1
1
1
1
1
1
1
1
1
1
1
1
1
1
1
1
1
1
1
1
1
1
1
1
1
1
1
1
1
1
1
1
1
1
1
1
1
1
1
1
1
1
1
1
1
1
1
1
1
1
0.999998
1.0001
1.00143
1.01098
1.05879
1.15829
1.30718
1.4262
1.51029
1.58402
1.61561
1.61437
1.61421
1.62613
1.63998
1.64456
1.64595
1
1
1
1
1
1
1
1
1
1
1
1
1
1
1
1
1
1
1
1
1
1
1
1
1
1
1
1
1
1
1
1
1
1
1
1
1
1
1
1
1
1
1
1
1
1
1
1
1
1
1
1
1
1
1
1
1
1
1
1
1
1
1
1
1
1
1.00001
1.00039
1.00405
1.02734
1.09978
1.2443
1.37387
1.48723
1.58125
1.59627
1.60702
1.62884
1.64293
1.64714
1
1
1
1
1
1
1
1
1
1
1
1
1
1
1
1
1
1
1
1
1
1
1
1
1
1
1
1
1
1
1
1
1
1
1
1
1
1
1
1
1
1
1
1
1
1
1
1
1
1
1
1
1
1
1
1
1
1
1
1
1
1
1
1
1
1
1
1
0.999999
1.00008
1.00145
1.01347
1.06305
1.18936
1.33826
1.46891
1.54902
1.58925
1.61806
1.64223
1
1
1
1
1
1
1
1
1
1
1
1
1
1
1
1
1
1
1
1
1
1
1
1
1
1
1
1
1
1
1
1
1
1
1
1
1
1
1
1
1
1
1
1
1
1
1
1
1
1
1
1
1
1
1
1
1
1
1
1
1
1
1
1
1
1
1
1
1
1
0.999999
1.00002
1.00057
1.00718
1.04202
1.14944
1.29129
1.43291
1.52676
1.61034
1
1
1
1
1
1
1
1
1
1
1
1
1
1
1
1
1
1
1
1
1
1
1
1
1
1
1
1
1
1
1
1
1
1
1
1
1
1
1
1
1
1
1
1
1
1
1
1
1
1
1
1
1
1
1
1
1
1
1
1
1
1
1
1
1
1
1
1
1
1
1
1
1
1
1.00025
1.0039
1.02591
1.10947
1.23957
1.47278
1
1
1
1
1
1
1
1
1
1
1
1
1
1
1
1
1
1
1
1
1
1
1
1
1
1
1
1
1
1
1
1
1
1
1
1
1
1
1
1
1
1
1
1
1
1
1
1
1
1
1
1
1
1
1
1
1
1
1
1
1
1
1
1
1
1
1
1
1
1
1
1
1
1
1
1
1.0001
1.00199
1.01389
1.15324
1
1
1
1
1
1
1
1
1
1
1
1
1
1
1
1
1
1
1
1
1
1
1
1
1
1
1
1
1
1
1
1
1
1
1
1
1
1
1
1
1
1
1
1
1
1
1
1
1
1
1
1
1
1
1
1
1
1
1
1
1
1
1
1
1
1
1
1
1
1
1
1
1
1
1
1
1
1
1.00003
1.00527
1
1
1
1
1
1
1
1
1
1
1
1
1
1
1
1
1
1
1
1
1
1
1
1
1
1
1
1
1
1
1
1
1
1
1
1
1
1
1
1
1
1
1
1
1
1
1
1
1
1
1
1
1
1
1
1
1
1
1
1
1
1
1
1
1
1
1
1
1
1
1
1
1
1
1
1
1
1
1
1.00001
1
1
1
1
1
1
1
1
1
1
1
1
1
1
1
1
1
1
1
1
1
1
1
1
1
1
1
1
1
1
1
1
1
1
1
1
1
1
1
1
1
1
1
1
1
1
1
1
1
1
1
1
1
1
1
1
1
1
1
1
1
1
1
1
1
1
1
1
1
1
1
1
1
1
1
1
1
1
1
1
1
1
1
1
1
1
1
1
1
1
1
1
1
1
1
1
1
1
1
1
1
1
1
1
1
1
1
1
1
1
1
1
1
1
1
1
1
1
1
1
1
1
1
1
1
1
1
1
1
1
1
1
1
1
1
1
1
1
1
1
1
1
1
1
1
1
1
1
1
1
1
1
1
1
1
1
1
1
1
1
1
1
1
1
1
1
1
1
1
1
1
1
1
1
1
1
1
1
1
1
1
1
1
1
1
1
1
1
1
1
1
1
1
1
1
1
1
1
1
1
1
1
1
1
1
1
1
1
1
1
1
1
1
1
1
1
1
1
1
1
1
1
1
1
1
1
1
1
1
1
1
1
1
1
1
1
1
1
1
1
1
1
1
1
1
1
1
1
1
1
1
1
1
1
1
1
1
1
1
1
1
1
1
1
1
1
1
1
1
1
1
1
1
1
1
1
1
1
1
1
1
1
1
1
1
1
1
1
1
1
1
1
1
1
1
1
1
1
1
1
1
1
1
1
1
1
1
1
1
1
1
1
1
1
1
1
1
1
1
1
1
1
1
1
1
1
1
1
1
1
1
1
1
1
1
1
1
1
1
1
1
1
1
1
1
1
1
1
1
1
1
1
1
1
1
1
1
1
1
1
1
1
1
1
1
1
1
1
1
1
1
1
1
1
1
1
1
1
1
1
1
1
1
1
1
1
1
1
1
1
1
1
1
1
1
1
1
1
1
1
1
1
1
1
1
1
1
1
1
1
1
1
1
1
1
1
1
1
1
1
1
1
1
1
1
1
1
1
1
1
1
1
1
1
1
1
1
1
1
1
1
1
1
1
1
1
1
1
1
1
1
1
1
1
1
1
1
1
1
1
1
1
1
1
1
1
1
1
1
1
1
1
1
1
1
1
1
1
1
1
1
1
1
1
1
1
1
1
1
1
1
1
1
1
1
1
1
1
1
1
1
1
1
1
1
1
1
1
1
1
1
1
1
1
1
1
1
1
1
1
1
1
1
1
1
1
1
1
1
1
1
1
1
1
1
1
1
1
1
1
1
1
1
1
1
1
1
1
1
1
1
1
1
1
1
1
1
1
1
1
1
1
1
1
1
1
1
1
1
1
1
1
1
1
1
1
1
1
1
1
1
1
1
1
1
1
1
1
1
1
1
1
1
1
1
1
1
1
1
1
1
1
1
1
1
1
1
1
1
1
1
1
1
1
1
1
1
1
1
1
1
1
1
1
1
1
1
1
1
1
1
1
1
1
1
1
1
1
1
1
1
1
1
1
1
1
1
1
1
1
1
1
1
1
1
1
1
1
1
1
1
1
1
1
1
1
1
1
1
1
1
1
1
1
1
1
1
1
1
1
1
1
1
1
1
1
1
1
1
1
1
1
1
1
1
1
1
1
1
1
1
1
1
1
1
1
1
1
1
1
1
1
1
1
1
1
1
1
1
1
1
1
1
1
1
1
1
1
1
1
1
1
1
1
1
1
1
1
1
1
1
1
1
1
1
1
1
1
1
1
1
1
1
1
1
1
1
1
1
1
1
1
1
1
1
1
1
1
1
1
1
1
1
1
1
1
1
1
1
1
1
1
1
1
1
1
1
1
1
1
1
1
1
1
1
1
1
1
1
1
)
;

boundaryField
{
    inlet
    {
        type            fixedValue;
        value           uniform 1;
    }
    outlet
    {
        type            zeroGradient;
    }
    bottom
    {
        type            symmetryPlane;
    }
    top
    {
        type            symmetryPlane;
    }
    obstacle
    {
        type            zeroGradient;
    }
    defaultFaces
    {
        type            empty;
    }
}


// ************************************************************************* //
