/*--------------------------------*- C++ -*----------------------------------*\
| =========                 |                                                 |
| \\      /  F ield         | OpenFOAM: The Open Source CFD Toolbox           |
|  \\    /   O peration     | Version:  2206                                  |
|   \\  /    A nd           | Website:  www.openfoam.com                      |
|    \\/     M anipulation  |                                                 |
\*---------------------------------------------------------------------------*/
FoamFile
{
    version     2.0;
    format      ascii;
    arch        "LSB;label=32;scalar=64";
    class       volScalarField;
    location    "0.18";
    object      T;
}
// * * * * * * * * * * * * * * * * * * * * * * * * * * * * * * * * * * * * * //

dimensions      [0 0 0 1 0 0 0];

internalField   nonuniform List<scalar> 
4800
(
1
1
1
1
1
1
1
1
1
1
1
1
1
1
1
1
1
1
1
1
1
1
1
1
1
1
1
1
1
1
1
1
1
1
1
1
1
1
1
1
1
1
1
1
1
1
1
1
1
1
1
1
1
1
1
1
1
1
1
1
1
1
1
1
1
1
1
1
1
1
1
1
1
1
1
1
1
1
1
1
1
1
1
1
1
1
1
1
1
1
1
1
1
1
1
1
1
1
1
1
1
1
1
1
1
1
1
1
1
1
1
1
1
1
1
1
1
1
1
1
1
1
1
1
1
1
1
1
1
1
1
1
1
1
1
1
1
1
1
1
1
1
1
1
1
1
1
1
1
1
1
1
1
1
1
1
1
1
1
1
1
1
1
1
1
1
1
1
1
1
1
1
1
1
1
1
1
1
1
1
1
1
1
1
1
1
1
1
1
1
1
1
1
1
1
1
1
1
1
1
1
1
1
1
1
1
1
1
1
1
1
1
1
1
1
1
1
1
1
1
1
1
1
1
1
1
1
1
1
1
1
1
1
1
1
1
1
1
1
1
1
1
1
1
1
1
1
1
1
1
1
1
1
1
1
1
1
1
1
1
1
1
1
1
1
1
1
1
1
1
1
1
1
1
1
1
1
1
1
1
1
1
1
1
1
1
1
1
1
1
1
1
1
1
1
1
1
1
1
1
1
1
1
1
1
1
1
1
1
1
1
1
1
1
1
1
1
1
1
1
1
1
1
1
1
1
1
1
1
1
1
1
1
1
1
1
1
1
1
1
1
1
1
1
1
1
1
1
1
1
1
1
1
1
1
1
1
1
1
1
1
1
1
1
1
1
1
1
1
1
1
1
1
1
1
1
1
1
1
1
1
1
1
1
1
1
1
1
1
1
1
1
1
1
1
1
1
1
1
1
1
1
1
1
1
1
1
1
1
1
1
1
1
1
1
1
1
1
1
1
1
1
1
1
1
1
1
1
1
1
1
1
1
1
1
1
1
1
1
1
1
1
1
1
1
1
1
1
1
1
1
1
1
1
1
1
1
1
1
1
1
1
1
1
1
1
1
1
1
1
1
1
1
1
1
1
1
1
1
1
1
1
1
1
1
1
1
1
1
1
1
1
1
1
1
1
1
1
1
1
1
1
1
1
1
1
1
1
1
1
1
1
1
1
1
1
1
1
1
1
1
1
1
1
1
1
1
1
1
1
1
1
1
1
1
1
1
1
1
1
1
1
1
1
1
1
1
1
1
1
1
1
1
1
1
1
1
1
1
1
1
1
1
1
1
1
1
1
1
1
1
1
1
1
1
1
1
1
1
1
1
1
1
1
1
1
1
1
1
1
1
1
1
1
1
1
1
1
1
1
1
1
1
1
1
1
1
1
1
1
1
1
1
1
1
1
1
1
1
1
1
1
1
1
1
1
1
1
1
1
1
1
1
1
1
1
1
1
1
1
1
1
1
1
1
1
1
1
1
1
1
1
1
1
1
1
1
1
1
1
1
1
1
1
1
1
1
1
1
1
1
1
1
1
1
1
1
1
1
1
1
1
1
1
1
1
1
1
1
1
1
1
1
1
1
1
1
1
1
1
1
1
1
1
1
1
1
1
1
1
1
1
1
1
1
1
1
1
1
1
1
1
1
1
1
1
1
1
1
1
1
1
1
1
1
1
1
1
1
1
1
1
1
1
1
1
1
1
1
1
1
1
1
1
1
1
1
1
1
1
1
1
1
1
1
1
1
1
1
1
1
1
1
1
1
1
1
1
1
1
1
1
1
1
1
1
1
1
1
1
1
1
1
1
1
1
1
1
1
1
1
1
1
1
1
1
1
1
1
1
1
1
1
1
1
1
1
1
1
1
1
1
1
1
1
1
1
1
1
1
1
1
1
1
1
1
1
1
1
1
1
1
1
1
1
1
1
1
1
1
1
1
1
1
1
1
1
1
1
1
1
1
1
1
1
1
1
1
1
1
1
1
1
1
1
1
1
1
1
1
1
1
1
1
1
1
1
1
1
1
1
1
1
1
1
1
1
1
1
1
1
1
1
1
1
1
1
1
1
1
1
1
1
1
1
1
1
1
1
1
1
1
1
1
1
1
1
1
1
1
1
1
1
1
1
1
1
1
1
1
1
1
1
1
1
1
1
1
1
1
1
1
1
1
1
1
1
1
1
1
1
1
1
1
1
1
1
1
1
1
1
1
1
1
1
1
1
1
1
1
1
1
1
1
1
1
1
1
1
1
1
1
1
1
1
1
1
1
1
1
1
1
1
1
1
1
1
1
1
1
1
1
1
1
1
1
1
1
1
1
1
1
1
1
1
1
1
1
1
1
1
1
1
1
1
1
1
1
1
1
1
1
1
1
1
1
1
1
1
1
1
1
1
1
1
1
1
1
1
1
1
1
1
1
1
1
1
1
1
1
1
1
1
1
1
1
1
1
1
1
1
1
1
1
1
1
1
1
1
1
1
1
1
1
1
1
1
1
1
1
1
1
1
1
1
1
1
1
1
1
1
1
1
1
1
1
1
1
1
1
1
1
1
1
1
1
1
1
1
1
1
1
1
1
1
1
1
1
1
1
1
1
1
1
1
1
1
1
1
1
1
1
1
1
1
1
1
1
1
1
1
1
1
1
1
1
1
1
1
1
1
1
1
1
1
1
1
1
1
1
1
1
1
1
1
1
1
1
1
1
1
1
1
1
1
1
1
1
1
1
1
1
1
1
1
1
1
1
1
1
1
1
1
1
1
1
1
1
1
1
1
1
1
1
1
1
1
1
1
1
1
1
1
1
1
1
1
1
1
1
1
1
1
1
1
1
1
1
1
1
1
1
1
1
1
1
1
1
1
1
1
1
1
1
1
1
1
1
1
1
1
1
1
1
1
1
1
1
1
1
1
1
1
1
1
1
1
1
1
1
1
1
1
1
1
1
1
1
1
1
1
1
1
1
1
1
1
1
1
1
1
1
1
1
1
1
1
1
1
1
1
1
1
1
1
1
1
1
1
1
1
1
1
1
1
1
1
1
1
1
1
1
1
1
1
1
1
1
1
1
1
1
1
1
1
1
1
1
1
1
1
1
1
1
1
1
1
1
1
1
1
1
1
1
1
1
1
1
1
1
1
1
1
1
1
1
1
1
1
1
1
1
1
1
1
1
1
1
1
1
1
1
1
1
1
1
1
1
1
1
1
1
1
1
1
1
1
1
1
1
1
1
1
1
1
1
1
1
1
1
1
1
1
1
1
1
1
1
1
1
1
1
1
1
1
1
1
1
1
1
1
1
1
1
1
1
1
1
1
1
1
1
1
1
1
1
1
1
1
1
1
1
1
1
1
1
1
1
1
1
1
1
1
1
1
1
1
1
1
1
1
1
1
1
1
1
1
1
1
1
1
1
1
1
1
1
1
1
1
1
1
1
1
1
1
1
1
1
1
1
1
1
1
1
1
1
1
1
1
1
1
1
1
1
1
1
1
1
1
1
1
1
1
1
1
1
1
1
1
1
1
1
1
1
1
1
1
1
1
1
1
1
1
1
1
1
1
1
1
1
1
1
1
1
1
1
1
1
1
1
1
1
1
1
1
1
1
1
1
1
1
1
1
1
1
1
1
1
1
1
1.07036
1.16314
1.25587
1.35483
1.46178
1.5456
1.60974
1.6924
1.80671
1.86807
1.89462
1.92814
1.97979
2.00294
1.99738
1.97512
1.95532
1.933
1.897
1.85047
1.80204
1.76468
1.74805
1.74566
1.74425
1.7465
1.75149
1.75949
1.76827
1.77242
1.77396
1.77612
1.78152
1.78726
1.793
1.79831
1.79947
1.79954
1.79934
1.79839
1.79781
1.79685
1.79624
1.7963
1.79706
1.79927
1.80253
1.80524
1.80686
1.80726
1.8075
1.8075
1.80661
1.80354
1.79858
1.79597
1.79612
1.79846
1.80328
1.8089
1.81249
1.81383
1.81385
1.81243
1.80936
1.80614
1.80277
1.80016
1.79874
1.79861
1.79965
1.80194
1.80524
1.81007
1.81463
1.81783
1.81902
1.81867
1.81664
1.81264
1
1
0.999964
0.999361
1.0042
1.05538
1.12529
1.16352
1.23876
1.35907
1.44184
1.48453
1.5435
1.62958
1.66964
1.69325
1.73566
1.75133
1.77051
1.81713
1.82433
1.8369
1.8382
1.83287
1.82025
1.81552
1.81059
1.80593
1.79731
1.78564
1.78412
1.78621
1.7882
1.78997
1.7921
1.79482
1.79737
1.80066
1.80525
1.80624
1.80548
1.80449
1.80475
1.80517
1.80517
1.80478
1.80424
1.80395
1.80488
1.80783
1.81063
1.81142
1.81105
1.80927
1.80788
1.8064
1.80562
1.80627
1.80747
1.80773
1.808
1.80928
1.81016
1.81062
1.81083
1.81062
1.81043
1.81017
1.8097
1.8094
1.80925
1.80924
1.8097
1.80996
1.81063
1.81197
1.81328
1.81395
1.81409
1.81373
1
1
1
1
1
1
1
0.999996
0.999999
0.999432
1.00503
1.02567
1.06574
1.16227
1.30981
1.41954
1.55918
1.69498
1.80813
1.89287
1.9118
1.91421
1.91348
1.90869
1.89764
1.88215
1.86732
1.84066
1.81663
1.81103
1.8101
1.80924
1.80782
1.80721
1.80755
1.80962
1.81187
1.81487
1.81827
1.81923
1.81993
1.82133
1.82248
1.82274
1.8228
1.82212
1.81878
1.81498
1.81362
1.81382
1.81548
1.81899
1.82206
1.8231
1.82267
1.82192
1.8214
1.82073
1.81947
1.81713
1.81471
1.81253
1.81187
1.81229
1.81493
1.81978
1.82312
1.82363
1.82345
1.82309
1.82225
1.82055
1.81893
1.81735
1.81572
1.81408
1.81249
1.81203
1.81275
1.81652
1
1
1
1
1
1
1
1
1
1
1
1
1
1
0.99953
1.00289
1.03111
1.16255
1.34365
1.53359
1.68729
1.77821
1.87557
1.87865
1.87821
1.87299
1.85824
1.86258
1.86636
1.87373
1.87527
1.86987
1.85955
1.85119
1.84562
1.83823
1.83086
1.82651
1.82662
1.82754
1.83037
1.83613
1.84319
1.84598
1.84649
1.84612
1.84268
1.83608
1.8303
1.8286
1.82888
1.83027
1.83308
1.83705
1.84026
1.84152
1.84138
1.83982
1.8371
1.83382
1.82957
1.82499
1.82309
1.82317
1.82369
1.82607
1.8315
1.83602
1.83749
1.83738
1.83597
1.83334
1.82938
1.82479
1.82159
1.81987
1.819
1.81892
1.81926
1.82168
1
1
1
1
1
1
1
1
1
1
1
1
1
1
1
1
1
1
0.999425
1.00992
1.10382
1.23493
1.42381
1.60192
1.72603
1.84285
1.87578
1.90157
1.92199
1.91819
1.91515
1.91156
1.90221
1.8879
1.87123
1.86324
1.85544
1.8487
1.84408
1.84364
1.8446
1.84782
1.85442
1.86024
1.86127
1.86123
1.86014
1.85608
1.851
1.84821
1.84688
1.84688
1.84743
1.84899
1.85125
1.85334
1.85479
1.85517
1.85392
1.85043
1.84609
1.84191
1.83912
1.8386
1.83834
1.83853
1.83975
1.84194
1.8445
1.84584
1.84579
1.84376
1.84023
1.83766
1.83626
1.83497
1.83349
1.83212
1.83187
1.83284
1
1
1
1
1
1
1
1
1
1
1
1
1
1
1
1
1
1
1
1
1
0.999627
1.00155
1.04945
1.13396
1.30173
1.51948
1.66415
1.78302
1.8147
1.84024
1.8626
1.86762
1.8727
1.88495
1.88845
1.88601
1.87747
1.86875
1.86168
1.85792
1.85522
1.85401
1.85492
1.8568
1.85939
1.86203
1.86267
1.8625
1.86226
1.86232
1.86133
1.86025
1.85854
1.85681
1.85663
1.85726
1.85964
1.86207
1.86228
1.86144
1.86017
1.85838
1.85697
1.85565
1.85383
1.85221
1.8511
1.85034
1.8495
1.84892
1.84896
1.85033
1.85248
1.85313
1.8528
1.85181
1.85002
1.84856
1.84624
1
1
1
1
1
1
1
1
1
1
1
1
1
1
1
1
1
1
1
1
1
1
1
1
0.999972
0.99943
1.01956
1.07685
1.21442
1.42376
1.56511
1.68529
1.76205
1.83391
1.88542
1.88823
1.88728
1.8841
1.88017
1.87438
1.8657
1.85695
1.85137
1.85061
1.85133
1.85407
1.85842
1.86486
1.86964
1.87192
1.8724
1.87139
1.86725
1.86119
1.85713
1.85561
1.85556
1.85699
1.86188
1.86697
1.86892
1.86986
1.8707
1.87103
1.87016
1.86552
1.85891
1.85528
1.85423
1.85372
1.85314
1.85333
1.85496
1.85835
1.86241
1.86418
1.86399
1.86216
1.86072
1.85811
1
1
1
1
1
1
1
1
1
1
1
1
1
1
1
1
1
1
1
1
1
1
1
1
1
1
1
1
0.999594
1.00726
1.03296
1.14634
1.35625
1.51315
1.64955
1.72248
1.79353
1.83644
1.84783
1.85715
1.86487
1.86396
1.8546
1.84924
1.84843
1.84947
1.85334
1.85783
1.86172
1.86479
1.86673
1.86919
1.86997
1.8656
1.85696
1.85411
1.85424
1.85589
1.85895
1.86194
1.86546
1.86936
1.87263
1.87371
1.87292
1.87041
1.86735
1.86351
1.86068
1.85895
1.85811
1.85793
1.85836
1.85959
1.86276
1.86606
1.86687
1.86633
1.86564
1.86299
1
1
1
1
1
1
1
1
1
1
1
1
1
1
1
1
1
1
1
1
1
1
1
1
1
1
1
1
1
1
1
0.999703
1.00303
1.02171
1.12151
1.29098
1.43725
1.58844
1.68609
1.78934
1.84234
1.85308
1.85214
1.85017
1.84751
1.84483
1.84409
1.841
1.83845
1.84208
1.85296
1.8609
1.8638
1.86447
1.86317
1.85895
1.85693
1.85623
1.85552
1.85621
1.85739
1.85936
1.86153
1.86409
1.86585
1.86658
1.86694
1.86811
1.86869
1.86789
1.86525
1.86191
1.86078
1.86193
1.86341
1.86355
1.86325
1.8625
1.86222
1.86262
1
1
1
1
1
1
1
1
1
1
1
1
1
1
1
1
1
1
1
1
1
1
1
1
1
1
1
1
1
1
1
1
1
1
0.999821
1.00086
1.0109
1.09744
1.26215
1.41333
1.56154
1.67041
1.78277
1.82379
1.8244
1.82834
1.83325
1.82542
1.82095
1.82373
1.83239
1.84314
1.85185
1.85337
1.85268
1.85385
1.85813
1.86068
1.85966
1.85473
1.8499
1.84891
1.84947
1.85031
1.85137
1.85363
1.85818
1.86418
1.86759
1.86825
1.86841
1.86781
1.86589
1.86352
1.86097
1.85931
1.85809
1.85771
1.85807
1.86028
1
1
1
1
1
1
1
1
1
1
1
1
1
1
1
1
1
1
1
1
1
1
1
1
1
1
1
1
1
1
1
1
1
1
1
1
1
0.999844
1.00062
1.01107
1.09312
1.22834
1.40863
1.5662
1.67584
1.77013
1.80803
1.8173
1.81836
1.81791
1.81697
1.82185
1.82722
1.8328
1.83778
1.84379
1.85062
1.85526
1.85614
1.856
1.85254
1.8452
1.84145
1.84051
1.84135
1.84339
1.84647
1.85174
1.85848
1.86285
1.8631
1.86284
1.86327
1.86465
1.86378
1.86034
1.85611
1.85413
1.8546
1.85828
1
1
1
1
1
1
1
1
1
1
1
1
1
1
1
1
1
1
1
1
1
1
1
1
1
1
1
1
1
1
1
1
1
1
1
1
1
1
1
1
0.999861
1.00031
1.0125
1.10795
1.23977
1.39681
1.54722
1.70495
1.80357
1.8099
1.80443
1.8094
1.80673
1.80438
1.80625
1.81337
1.8264
1.84105
1.84499
1.84442
1.8446
1.84499
1.84631
1.84533
1.84142
1.83779
1.83739
1.84104
1.84463
1.84652
1.84856
1.85094
1.85465
1.85838
1.85884
1.8583
1.85759
1.85628
1.85555
1.85655
1
1
1
1
1
1
1
1
1
1
1
1
1
1
1
1
1
1
1
1
1
1
1
1
1
1
1
1
1
1
1
1
1
1
1
1
1
1
1
1
1
1
1
0.999912
1.00072
1.01677
1.10679
1.27268
1.49077
1.61568
1.72225
1.77632
1.79536
1.80043
1.80041
1.79852
1.80254
1.81308
1.82102
1.82406
1.82952
1.83541
1.84069
1.8437
1.84306
1.84308
1.84207
1.83979
1.83659
1.83418
1.83442
1.83596
1.83957
1.84581
1.85114
1.85191
1.85168
1.85189
1.85425
1.85638
1
1
1
1
1
1
1
1
1
1
1
1
1
1
1
1
1
1
1
1
1
1
1
1
1
1
1
1
1
1
1
1
1
1
1
1
1
1
1
1
1
1
1
1
0.999998
1.00001
0.999952
1.00247
1.05027
1.17059
1.30969
1.4791
1.63833
1.78522
1.80459
1.79967
1.80648
1.80529
1.80229
1.79794
1.7967
1.80497
1.82153
1.83307
1.83391
1.83423
1.83684
1.84038
1.8407
1.83461
1.82741
1.82639
1.82799
1.83428
1.83812
1.8395
1.84128
1.84523
1.84946
1.8519
1
1
1
1
1
1
1
1
1
1
1
1
1
1
1
1
1
1
1
1
1
1
1
1
1
1
1
1
1
1
1
1
1
1
1
1
1
1
1
1
1
1
1
1
1
1
1
0.999994
0.999999
1.00039
1.00587
1.06195
1.1989
1.45082
1.61847
1.72829
1.7748
1.80155
1.8066
1.80151
1.79007
1.7936
1.80294
1.81284
1.81599
1.81784
1.82587
1.83423
1.83657
1.83461
1.83229
1.83111
1.83048
1.83
1.82983
1.83039
1.83182
1.83432
1.83926
1.84412
1
1
1
1
1
1
1
1
1
1
1
1
1
1
1
1
1
1
1
1
1
1
1
1
1
1
1
1
1
1
1
1
1
1
1
1
1
1
1
1
1
1
1
1
1
1
1
1
1
0.999999
1
0.99998
1.00142
1.03964
1.20013
1.34858
1.49046
1.65444
1.78658
1.80894
1.80403
1.81627
1.81512
1.80688
1.80129
1.79763
1.80078
1.81302
1.82252
1.82526
1.82427
1.82435
1.82784
1.83234
1.83334
1.82952
1.82652
1.8269
1.82924
1.83333
1
1
1
1
1
1
1
1
1
1
1
1
1
1
1
1
1
1
1
1
1
1
1
1
1
1
1
1
1
1
1
1
1
1
1
1
1
1
1
1
1
1
1
1
1
1
1
1
1
1
1
1
0.999998
0.999984
1.00125
1.01114
1.07978
1.22399
1.48099
1.66343
1.76355
1.79595
1.81106
1.81285
1.81273
1.80383
1.80072
1.80363
1.80718
1.80974
1.80917
1.8132
1.82395
1.83112
1.8314
1.82796
1.82749
1.82795
1.8275
1.82706
1
1
1
1
1
1
1
1
1
1
1
1
1
1
1
1
1
1
1
1
1
1
1
1
1
1
1
1
1
1
1
1
1
1
1
1
1
1
1
1
1
1
1
1
1
1
1
1
1
1
1
1
1
1
1
0.999987
1.00011
1.0029
1.06865
1.30112
1.4916
1.59214
1.72087
1.8066
1.82288
1.81852
1.82359
1.82518
1.81606
1.80448
1.80021
1.80115
1.81121
1.82149
1.823
1.82237
1.82145
1.8223
1.82403
1.82654
1
1
1
1
1
1
1
1
1
1
1
1
1
1
1
1
1
1
1
1
1
1
1
1
1
1
1
1
1
1
1
1
1
1
1
1
1
1
1
1
1
1
1
1
1
1
1
1
1
1
1
1
1
1
1
0.999999
0.999999
0.999991
1.00026
1.00833
1.06418
1.20515
1.39074
1.61515
1.73133
1.78444
1.81487
1.8191
1.81708
1.81533
1.81402
1.81335
1.81527
1.81542
1.81303
1.81019
1.80792
1.81036
1.82011
1.8247
1
1
1
1
1
1
1
1
1
1
1
1
1
1
1
1
1
1
1
1
1
1
1
1
1
1
1
1
1
1
1
1
1
1
1
1
1
1
1
1
1
1
1
1
1
1
1
1
1
1
1
1
1
1
1
1
1
0.999999
0.999999
0.99999
1.00012
1.00287
1.02739
1.20164
1.48933
1.64041
1.70283
1.77196
1.81112
1.82271
1.82576
1.83173
1.83619
1.83211
1.819
1.80644
1.80265
1.80647
1.81446
1.8195
1
1
1
1
1
1
1
1
1
1
1
1
1
1
1
1
1
1
1
1
1
1
1
1
1
1
1
1
1
1
1
1
1
1
1
1
1
1
1
1
1
1
1
1
1
1
1
1
1
1
1
1
1
1
1
1
1
1
1
0.999999
1
0.999995
1.00002
1.00446
1.06396
1.27056
1.44414
1.61561
1.73451
1.76894
1.79419
1.82052
1.82768
1.82628
1.81688
1.81279
1.8137
1.81647
1.82039
1.81886
1
1
1
1
1
1
1
1
1
1
1
1
1
1
1
1
1
1
1
1
1
1
1
1
1
1
1
1
1
1
1
1
1
1
1
1
1
1
1
1
1
1
1
1
1
1
1
1
1
1
1
1
1
1
1
1
1
1
1
1
1
1
1
0.999992
1.00026
1.00936
1.0528
1.21508
1.51067
1.71532
1.75393
1.77409
1.80319
1.81074
1.80381
1.80338
1.81631
1.83033
1.83273
1.82688
1
1
1
1
1
1
1
1
1
1
1
1
1
1
1
1
1
1
1
1
1
1
1
1
1
1
1
1
1
1
1
1
1
1
1
1
1
1
1
1
1
1
1
1
1
1
1
1
1
1
1
1
1
1
1
1
1
1
1
1
1
1
1
0.999999
0.999999
0.999994
1.00016
1.007
1.08153
1.37539
1.60404
1.72118
1.78932
1.79086
1.78601
1.7858
1.80078
1.82083
1.82811
1.82257
1
1
1
1
1
1
1
1
1
1
1
1
1
1
1
1
1
1
1
1
1
1
1
1
1
1
1
1
1
1
1
1
1
1
1
1
1
1
1
1
1
1
1
1
1
1
1
1
1
1
1
1
1
1
1
1
1
1
1
1
1
1
1
1
1
0.999999
0.999999
0.999995
1.00081
1.03543
1.19533
1.38553
1.61642
1.77131
1.80529
1.80809
1.81628
1.81409
1.81314
1.8093
1
1
1
1
1
1
1
1
1
1
1
1
1
1
1
1
1
1
1
1
1
1
1
1
1
1
1
1
1
1
1
1
1
1
1
1
1
1
1
1
1
1
1
1
1
1
1
1
1
1
1
1
1
1
1
1
1
1
1
1
1
1
1
1
1
1
1
1
0.999998
1.00014
1.00397
1.04596
1.18824
1.51768
1.70848
1.80575
1.83188
1.8289
1.82485
1.81389
1
1
1
1
1
1
1
1
1
1
1
1
1
1
1
1
1
1
1
1
1
1
1
1
1
1
1
1
1
1
1
1
1
1
1
1
1
1
1
1
1
1
1
1
1
1
1
1
1
1
1
1
1
1
1
1
1
1
1
1
1
1
1
1
1
1
1
1
1
1
0.999996
1.00022
1.00528
1.1203
1.43442
1.63729
1.75143
1.8038
1.81619
1.82521
1
1
1
1
1
1
1
1
1
1
1
1
1
1
1
1
1
1
1
1
1
1
1
1
1
1
1
1
1
1
1
1
1
1
1
1
1
1
1
1
1
1
1
1
1
1
1
1
1
1
1
1
1
1
1
1
1
1
1
1
1
1
1
1
1
1
1
1
1
1
1
0.999999
1.00001
1.00269
1.06238
1.30214
1.52957
1.6755
1.75049
1.81428
1
1
1
1
1
1
1
1
1
1
1
1
1
1
1
1
1
1
1
1
1
1
1
1
1
1
1
1
1
1
1
1
1
1
1
1
1
1
1
1
1
1
1
1
1
1
1
1
1
1
1
1
1
1
1
1
1
1
1
1
1
1
1
1
1
1
1
1
1
1
1
1
1
1
1.00074
1.02171
1.12003
1.38072
1.63291
1.78355
1
1
1
1
1
1
1
1
1
1
1
1
1
1
1
1
1
1
1
1
1
1
1
1
1
1
1
1
1
1
1
1
1
1
1
1
1
1
1
1
1
1
1
1
1
1
1
1
1
1
1
1
1
1
1
1
1
1
1
1
1
1
1
1
1
1
1
1
1
1
1
1
1
1
0.999999
1.00006
1.00235
1.04478
1.28512
1.69645
1
1
1
1
1
1
1
1
1
1
1
1
1
1
1
1
1
1
1
1
1
1
1
1
1
1
1
1
1
1
1
1
1
1
1
1
1
1
1
1
1
1
1
1
1
1
1
1
1
1
1
1
1
1
1
1
1
1
1
1
1
1
1
1
1
1
1
1
1
1
1
1
1
1
1
1
1
1.0008
1.02348
1.45008
1
1
1
1
1
1
1
1
1
1
1
1
1
1
1
1
1
1
1
1
1
1
1
1
1
1
1
1
1
1
1
1
1
1
1
1
1
1
1
1
1
1
1
1
1
1
1
1
1
1
1
1
1
1
1
1
1
1
1
1
1
1
1
1
1
1
1
1
1
1
1
1
1
1
1
1
1
1
1.0004
1.1158
1
1
1
1
1
1
1
1
1
1
1
1
1
1
1
1
1
1
1
1
1
1
1
1
1
1
1
1
1
1
1
1
1
1
1
1
1
1
1
1
1
1
1
1
1
1
1
1
1
1
1
1
1
1
1
1
1
1
1
1
1
1
1
1
1
1
1
1
1
1
1
1
1
1
1
1
1
1
1
1.00843
1
1
1
1
1
1
1
1
1
1
1
1
1
1
1
1
1
1
1
1
1
1
1
1
1
1
1
1
1
1
1
1
1
1
1
1
1
1
1
1
1
1
1
1
1
1
1
1
1
1
1
1
1
1
1
1
1
1
1
1
1
1
1
1
1
1
1
1
1
1
1
1
1
1
1
1
1
1
1
1.00024
1
1
1
1
1
1
1
1
1
1
1
1
1
1
1
1
1
1
1
1
1
1
1
1
1
1
1
1
1
1
1
1
1
1
1
1
1
1
1
1
1
1
1
1
1
1
1
1
1
1
1
1
1
1
1
1
1
1
1
1
1
1
1
1
1
1
1
1
1
1
1
1
1
1
1
1
1
1
1
1
1
1
1
1
1
1
1
1
1
1
1
1
1
1
1
1
1
1
1
1
1
1
1
1
1
1
1
1
1
1
1
1
1
1
1
1
1
1
1
1
1
1
1
1
1
1
1
1
1
1
1
1
1
1
1
1
1
1
1
1
1
1
1
1
1
1
1
1
1
1
1
1
1
1
1
1
1
1
1
1
1
1
1
1
1
1
1
1
1
1
1
1
1
1
1
1
1
1
1
1
1
1
1
1
1
1
1
1
1
1
1
1
1
1
1
1
1
1
1
1
1
1
1
1
1
1
1
1
1
1
1
1
1
1
1
1
1
1
1
1
1
1
1
1
1
1
1
1
1
1
1
1
1
1
1
1
1
1
1
1
1
1
1
1
1
1
1
1
1
1
1
1
1
1
1
1
1
1
1
1
1
1
1
1
1
1
1
1
1
1
1
1
1
1
1
1
1
1
1
1
1
1
1
1
1
1
1
1
1
1
1
1
1
1
1
1
1
1
1
1
1
1
1
1
1
1
1
1
1
1
1
1
1
1
1
1
1
1
1
1
1
1
1
1
1
1
1
1
1
1
1
1
1
1
1
1
1
1
1
1
1
1
1
1
1
1
1
1
1
1
1
1
1
1
1
1
1
1
1
1
1
1
1
1
1
1
1
1
1
1
1
1
1
1
1
1
1
1
1
1
1
1
1
1
1
1
1
1
1
1
1
1
1
1
1
1
1
1
1
1
1
1
1
1
1
1
1
1
1
1
1
1
1
1
1
1
1
1
1
1
1
1
1
1
1
1
1
1
1
1
1
1
1
1
1
1
1
1
1
1
1
1
1
1
1
1
1
1
1
1
1
1
1
1
1
1
1
1
1
1
1
1
1
1
1
1
1
1
1
1
1
1
1
1
1
1
1
1
1
1
1
1
1
1
1
1
1
1
1
1
1
1
1
1
1
1
1
1
1
1
1
1
1
1
1
1
1
1
1
1
1
1
1
1
1
1
1
1
1
1
1
1
1
1
1
1
1
1
1
1
1
1
1
1
1
1
1
1
1
1
1
1
1
1
1
1
1
1
1
1
1
1
1
1
1
1
1
1
1
1
)
;

boundaryField
{
    inlet
    {
        type            fixedValue;
        value           uniform 1;
    }
    outlet
    {
        type            zeroGradient;
    }
    bottom
    {
        type            symmetryPlane;
    }
    top
    {
        type            symmetryPlane;
    }
    obstacle
    {
        type            zeroGradient;
    }
    defaultFaces
    {
        type            empty;
    }
}


// ************************************************************************* //
