/*--------------------------------*- C++ -*----------------------------------*\
| =========                 |                                                 |
| \\      /  F ield         | OpenFOAM: The Open Source CFD Toolbox           |
|  \\    /   O peration     | Version:  2206                                  |
|   \\  /    A nd           | Website:  www.openfoam.com                      |
|    \\/     M anipulation  |                                                 |
\*---------------------------------------------------------------------------*/
FoamFile
{
    version     2.0;
    format      ascii;
    arch        "LSB;label=32;scalar=64";
    class       volVectorField;
    location    "0.16";
    object      U;
}
// * * * * * * * * * * * * * * * * * * * * * * * * * * * * * * * * * * * * * //

dimensions      [0 1 -1 0 0 0 0];

internalField   nonuniform List<vector> 
75
(
(5.06061 -4.10446e-15 0)
(5.06061 -4.09821e-15 0)
(5.06061 3.79232e-17 0)
(5.06061 -1.3794e-16 0)
(5.06061 -5.93019e-16 0)
(5.06061 -2.65046e-16 0)
(5.06061 -5.22132e-15 0)
(5.06061 -5.06713e-15 0)
(5.06061 -4.86792e-15 0)
(5.06061 -4.43735e-15 0)
(5.06061 -4.12988e-15 0)
(5.06061 -4.05445e-15 0)
(5.06061 -7.68799e-15 0)
(5.06061 -7.16832e-15 0)
(5.06061 -1.283e-15 0)
(5.06061 -3.77065e-15 0)
(5.06061 -7.45129e-16 0)
(5.06061 2.89717e-15 0)
(5.06061 6.30192e-15 0)
(5.06061 1.19182e-14 0)
(5.06061 3.77815e-15 0)
(5.06061 3.52728e-15 0)
(5.06061 6.26817e-15 0)
(5.06061 1.23134e-14 0)
(5.06061 1.23392e-14 0)
(5.0267 0.0271839 0)
(4.97673 0.0418293 0)
(4.91613 0.15153 0)
(4.86446 0.207984 0)
(4.79049 0.375962 0)
(4.74382 0.451194 0)
(4.65689 0.643204 0)
(4.63273 0.713202 0)
(4.54093 0.932034 0)
(4.46291 1.06084 0)
(5.06051 0.000255487 0)
(5.0601 0.000720546 0)
(5.0541 0.00955177 0)
(5.02826 0.0695455 0)
(4.98227 0.175593 0)
(4.8946 0.402202 0)
(4.80007 0.65684 0)
(4.66153 1.01784 0)
(4.53268 1.35707 0)
(4.32975 1.58493 0)
(5.06061 -2.44535e-06 0)
(5.0606 1.21266e-05 0)
(5.06068 -0.000154033 0)
(5.06055 0.000150053 0)
(5.06171 -0.00252584 0)
(5.05954 0.00471551 0)
(5.0542 0.0160866 0)
(5.01937 0.128221 0)
(4.99487 0.282235 0)
(4.73307 0.956392 0)
(5.06061 -1.06831e-07 0)
(5.06061 2.77021e-07 0)
(5.06061 -1.52653e-05 0)
(5.06062 -2.78571e-05 0)
(5.06062 -0.000113039 0)
(5.06063 -0.000207661 0)
(5.06059 -8.50189e-05 0)
(5.06046 0.000597478 0)
(5.06047 0.0090514 0)
(4.89469 0.557618 0)
(5.06061 -2.55226e-10 0)
(5.06061 1.15973e-08 0)
(5.06061 1.51687e-09 0)
(5.06061 -2.958e-06 0)
(5.0606 -9.67127e-06 0)
(5.06061 -5.3473e-05 0)
(5.06062 -6.33782e-05 0)
(5.0606 -3.90979e-05 0)
(5.06056 7.56646e-05 0)
(5.00294 0.0861807 0)
)
;

boundaryField
{
    inlet
    {
        type            fixedValue;
        value           uniform (5.06061 0 0);
    }
    outlet
    {
        type            zeroGradient;
    }
    bottom
    {
        type            symmetryPlane;
    }
    top
    {
        type            symmetryPlane;
    }
    obstacle
    {
        type            slip;
    }
    defaultFaces
    {
        type            empty;
    }
}


// ************************************************************************* //
