/*--------------------------------*- C++ -*----------------------------------*\
| =========                 |                                                 |
| \\      /  F ield         | OpenFOAM: The Open Source CFD Toolbox           |
|  \\    /   O peration     | Version:  2206                                  |
|   \\  /    A nd           | Website:  www.openfoam.com                      |
|    \\/     M anipulation  |                                                 |
\*---------------------------------------------------------------------------*/
FoamFile
{
    version     2.0;
    format      ascii;
    arch        "LSB;label=32;scalar=64";
    class       volScalarField;
    location    "0.18";
    object      T;
}
// * * * * * * * * * * * * * * * * * * * * * * * * * * * * * * * * * * * * * //

dimensions      [0 0 0 1 0 0 0];

internalField   nonuniform List<scalar> 
4800
(
1
1
1
1
1
1
1
1
1
1
1
1
1
1
1
1
1
1
1
1
1
1
1
1
1
1
1
1
1
1
1
1
1
1
1
1
1
1
1
1
1
1
1
1
1
1
1
1
1
1
1
1
1
1
1
1
1
1
1
1
1
1
1
1
1
1
1
1
1
1
1
1
1
1
1
1
1
1
1
1
1
1
1
1
1
1
1
1
1
1
1
1
1
1
1
1
1
1
1
1
1
1
1
1
1
1
1
1
1
1
1
1
1
1
1
1
1
1
1
1
1
1
1
1
1
1
1
1
1
1
1
1
1
1
1
1
1
1
1
1
1
1
1
1
1
1
1
1
1
1
1
1
1
1
1
1
1
1
1
1
1
1
1
1
1
1
1
1
1
1
1
1
1
1
1
1
1
1
1
1
1
1
1
1
1
1
1
1
1
1
1
1
1
1
1
1
1
1
1
1
1
1
1
1
1
1
1
1
1
1
1
1
1
1
1
1
1
1
1
1
1
1
1
1
1
1
1
1
1
1
1
1
1
1
1
1
1
1
1
1
1
1
1
1
1
1
1
1
1
1
1
1
1
1
1
1
1
1
1
1
1
1
1
1
1
1
1
1
1
1
1
1
1
1
1
1
1
1
1
1
1
1
1
1
1
1
1
1
1
1
1
1
1
1
1
1
1
1
1
1
1
1
1
1
1
1
1
1
1
1
1
1
1
1
1
1
1
1
1
1
1
1
1
1
1
1
1
1
1
1
1
1
1
1
1
1
1
1
1
1
1
1
1
1
1
1
1
1
1
1
1
1
1
1
1
1
1
1
1
1
1
1
1
1
1
1
1
1
1
1
1
1
1
1
1
1
1
1
1
1
1
1
1
1
1
1
1
1
1
1
1
1
1
1
1
1
1
1
1
1
1
1
1
1
1
1
1
1
1
1
1
1
1
1
1
1
1
1
1
1
1
1
1
1
1
1
1
1
1
1
1
1
1
1
1
1
1
1
1
1
1
1
1
1
1
1
1
1
1
1
1
1
1
1
1
1
1
1
1
1
1
1
1
1
1
1
1
1
1
1
1
1
1
1
1
1
1
1
1
1
1
1
1
1
1
1
1
1
1
1
1
1
1
1
1
1
1
1
1
1
1
1
1
1
1
1
1
1
1
1
1
1
1
1
1
1
1
1
1
1
1
1
1
1
1
1
1
1
1
1
1
1
1
1
1
1
1
1
1
1
1
1
1
1
1
1
1
1
1
1
1
1
1
1
1
1
1
1
1
1
1
1
1
1
1
1
1
1
1
1
1
1
1
1
1
1
1
1
1
1
1
1
1
1
1
1
1
1
1
1
1
1
1
1
1
1
1
1
1
1
1
1
1
1
1
1
1
1
1
1
1
1
1
1
1
1
1
1
1
1
1
1
1
1
1
1
1
1
1
1
1
1
1
1
1
1
1
1
1
1
1
1
1
1
1
1
1
1
1
1
1
1
1
1
1
1
1
1
1
1
1
1
1
1
1
1
1
1
1
1
1
1
1
1
1
1
1
1
1
1
1
1
1
1
1
1
1
1
1
1
1
1
1
1
1
1
1
1
1
1
1
1
1
1
1
1
1
1
1
1
1
1
1
1
1
1
1
1
1
1
1
1
1
1
1
1
1
1
1
1
1
1
1
1
1
1
1
1
1
1
1
1
1
1
1
1
1
1
1
1
1
1
1
1
1
1
1
1
1
1
1
1
1
1
1
1
1
1
1
1
1
1
1
1
1
1
1
1
1
1
1
1
1
1
1
1
1
1
1
1
1
1
1
1
1
1
1
1
1
1
1
1
1
1
1
1
1
1
1
1
1
1
1
1
1
1
1
1
1
1
1
1
1
1
1
1
1
1
1
1
1
1
1
1
1
1
1
1
1
1
1
1
1
1
1
1
1
1
1
1
1
1
1
1
1
1
1
1
1
1
1
1
1
1
1
1
1
1
1
1
1
1
1
1
1
1
1
1
1
1
1
1
1
1
1
1
1
1
1
1
1
1
1
1
1
1
1
1
1
1
1
1
1
1
1
1
1
1
1
1
1
1
1
1
1
1
1
1
1
1
1
1
1
1
1
1
1
1
1
1
1
1
1
1
1
1
1
1
1
1
1
1
1
1
1
1
1
1
1
1
1
1
1
1
1
1
1
1
1
1
1
1
1
1
1
1
1
1
1
1
1
1
1
1
1
1
1
1
1
1
1
1
1
1
1
1
1
1
1
1
1
1
1
1
1
1
1
1
1
1
1
1
1
1
1
1
1
1
1
1
1
1
1
1
1
1
1
1
1
1
1
1
1
1
1
1
1
1
1
1
1
1
1
1
1
1
1
1
1
1
1
1
1
1
1
1
1
1
1
1
1
1
1
1
1
1
1
1
1
1
1
1
1
1
1
1
1
1
1
1
1
1
1
1
1
1
1
1
1
1
1
1
1
1
1
1
1
1
1
1
1
1
1
1
1
1
1
1
1
1
1
1
1
1
1
1
1
1
1
1
1
1
1
1
1
1
1
1
1
1
1
1
1
1
1
1
1
1
1
1
1
1
1
1
1
1
1
1
1
1
1
1
1
1
1
1
1
1
1
1
1
1
1
1
1
1
1
1
1
1
1
1
1
1
1
1
1
1
1
1
1
1
1
1
1
1
1
1
1
1
1
1
1
1
1
1
1
1
1
1
1
1
1
1
1
1
1
1
1
1
1
1
1
1
1
1
1
1
1
1
1
1
1
1
1
1
1
1
1
1
1
1
1
1
1
1
1
1
1
1
1
1
1
1
1
1
1
1
1
1
1
1
1
1
1
1
1
1
1
1
1
1
1
1
1
1
1
1
1
1
1
1
1
1
1
1
1
1
1
1
1
1
1
1
1
1
1
1
1
1
1
1
1
1
1
1
1
1
1
1
1
1
1
1
1
1
1
1
1
1
1
1
1
1
1
1
1
1
1
1
1
1
1
1
1
1
1
1
1
1
1
1
1
1
1
1
1
1
1
1
1
1
1
1
1
1
1
1
1
1
1
1
1
1
1
1
1
1
1
1
1
1
1
1
1
1
1
1
1
1
1
1
1
1
1
1
1
1
1
1
1
1
1
1
1
1
1
1
1
1
1
1
1
1
1
1
1
1
1
1
1
1
1
1
1
1
1
1
1
1
1
1
1
1
1
1
1
1
1
1
1
1
1
1
1
1
1
1
1
1
1
1
1
1
1
1
1
1
1
1
1
1
1
1
1
1
1
1
1
1
1
1
1
1
1
1
1
1
1
1
1
1
1
1
1
1
1
1
1
1
1
1
1
1
1
1
1
1
1
1
1
1
1
1
1
1
1
1
1
1
1
1
1
1
1
1
1
1
1
1
1
1
1
1
1
1
1
1
1
1
1
1
1
1
1
1
1
1
1
1
1
1
1
1
1
1
1
1
1
1
1
1
1
1
1
1
1
1
1
1
1
1
1
1
1
1
1
1
1
1
1
1
1
1
1
1
1
1
1
1
1
1
1
1
1
1
1
1
1
1
1
1
1
1
1
1
1
1
1
1
1
1
1
1
1
1
1
1
1
1
1
1
1
1
1
1
1
1
1
1
1
1
1
1
1
1
1
1
1
1
1.07294
1.16769
1.26895
1.34748
1.42094
1.49627
1.53803
1.5736
1.59473
1.58996
1.5721
1.53426
1.4943
1.46873
1.45607
1.44381
1.44099
1.4425
1.44717
1.4529
1.45833
1.46157
1.46139
1.46062
1.46027
1.46074
1.46184
1.46344
1.46541
1.4674
1.46827
1.46833
1.46829
1.4677
1.46696
1.46709
1.46731
1.46777
1.46849
1.46887
1.46906
1.46906
1.46887
1.46836
1.46778
1.4676
1.46763
1.46777
1.4682
1.46906
1.4698
1.47004
1.47008
1.46998
1.46956
1.4693
1.4693
1.46939
1.46973
1.47014
1.47036
1.47049
1.47056
1.47061
1.47066
1.47072
1.47084
1.47099
1.47113
1.47123
1.47125
1.47122
1.47117
1.4711
1.47107
1.4711
1.47119
1.47136
1.47157
1.47156
1.00163
1.00774
1.02472
1.07231
1.1204
1.18622
1.25607
1.3135
1.36518
1.40746
1.43403
1.45195
1.48098
1.48969
1.48509
1.47922
1.47486
1.46937
1.46571
1.46251
1.46032
1.46151
1.46171
1.46196
1.46277
1.46392
1.46511
1.46629
1.46736
1.46805
1.46813
1.4681
1.46789
1.46737
1.4674
1.46784
1.46845
1.46919
1.47004
1.47048
1.47062
1.47063
1.47057
1.47027
1.46983
1.46976
1.46982
1.46997
1.47033
1.47087
1.47115
1.47119
1.47113
1.47079
1.47027
1.4701
1.47012
1.47027
1.47062
1.47088
1.47089
1.47086
1.4708
1.47075
1.47075
1.4708
1.47092
1.47106
1.47118
1.47126
1.47127
1.47123
1.47118
1.47114
1.47114
1.47119
1.47131
1.47149
1.47168
1.47167
1
0.999999
1.00002
1.00038
1.0017
1.00721
1.02546
1.06534
1.14179
1.24449
1.37358
1.45718
1.51214
1.53107
1.52768
1.52059
1.50998
1.4977
1.47842
1.46898
1.46865
1.46907
1.47068
1.47279
1.47235
1.47135
1.47143
1.47239
1.47363
1.47411
1.47393
1.47332
1.47274
1.47211
1.4719
1.4721
1.47245
1.47284
1.47334
1.47388
1.47423
1.47438
1.47449
1.47438
1.47395
1.47379
1.47376
1.47382
1.4741
1.47446
1.47455
1.47452
1.47431
1.47377
1.47317
1.47296
1.47296
1.47304
1.47328
1.47337
1.4733
1.47314
1.47289
1.4726
1.47244
1.47241
1.47244
1.4725
1.47255
1.47255
1.47249
1.47237
1.47222
1.47204
1.47197
1.47199
1.47205
1.4722
1.47236
1.47234
1
1
1
1
1
0.999999
1.00003
1.0003
1.00258
1.01558
1.07426
1.20605
1.32967
1.43743
1.47446
1.50228
1.50023
1.49401
1.49868
1.5
1.49825
1.49297
1.48969
1.48414
1.48039
1.47779
1.47832
1.47993
1.48195
1.48284
1.48269
1.48223
1.48148
1.48033
1.4798
1.47978
1.47978
1.47962
1.47951
1.47945
1.47944
1.47958
1.47965
1.47946
1.47908
1.47873
1.47863
1.47877
1.47916
1.47931
1.47929
1.47914
1.47863
1.47787
1.47743
1.47739
1.47741
1.47751
1.47769
1.4777
1.47752
1.47719
1.47679
1.47634
1.476
1.47584
1.47576
1.47571
1.47568
1.47559
1.47539
1.47514
1.47483
1.47448
1.47426
1.47418
1.47412
1.47413
1.47422
1.47415
1
1
1
1
1
1
1
1
1
1
1.00029
1.00617
1.03405
1.12527
1.25834
1.37793
1.46112
1.49278
1.51878
1.5194
1.51713
1.51204
1.50062
1.48487
1.48014
1.48243
1.48515
1.48671
1.48772
1.48833
1.48851
1.48832
1.48807
1.48753
1.48733
1.48756
1.48744
1.48703
1.48637
1.48563
1.48547
1.48551
1.48546
1.48492
1.48422
1.48363
1.48326
1.48335
1.48371
1.48376
1.48369
1.48335
1.48258
1.48182
1.48164
1.48167
1.48184
1.48217
1.48242
1.48239
1.48207
1.48161
1.48112
1.48058
1.48026
1.48009
1.47993
1.4799
1.47992
1.4798
1.47949
1.47915
1.47872
1.47821
1.47785
1.47764
1.47746
1.47734
1.47735
1.47717
1
1
1
1
1
1
1
1
1
1
1
0.999997
1.00005
1.00133
1.01665
1.06568
1.19045
1.31654
1.42656
1.47699
1.48714
1.49452
1.49357
1.49013
1.48836
1.49059
1.49064
1.49045
1.48923
1.48713
1.48692
1.48754
1.48882
1.48955
1.49022
1.49109
1.49112
1.4911
1.49109
1.49074
1.49014
1.48967
1.48918
1.48843
1.48773
1.48715
1.48697
1.48729
1.48754
1.48752
1.48735
1.48683
1.48595
1.48532
1.48527
1.48531
1.48555
1.48591
1.48605
1.48594
1.48552
1.48505
1.48463
1.4842
1.48399
1.48382
1.48369
1.48373
1.48387
1.4838
1.48351
1.48316
1.48271
1.48215
1.48172
1.48145
1.4812
1.48101
1.48095
1.48065
1
1
1
1
1
1
1
1
1
1
1
1
1
0.999999
1.00001
1.00032
1.00572
1.04135
1.12237
1.25567
1.36266
1.45494
1.48453
1.49466
1.4999
1.49809
1.49509
1.49129
1.48673
1.48286
1.4827
1.48328
1.48472
1.48639
1.48743
1.48841
1.48958
1.491
1.49205
1.49209
1.49172
1.4909
1.49014
1.48979
1.48951
1.48938
1.48943
1.48963
1.48988
1.48985
1.48966
1.4891
1.48828
1.48787
1.48786
1.48798
1.48828
1.48853
1.48858
1.4884
1.48793
1.48746
1.48701
1.48667
1.48652
1.48636
1.48626
1.48634
1.48658
1.48659
1.48644
1.48618
1.48577
1.48525
1.48485
1.48458
1.48436
1.48419
1.48409
1.48376
1
1
1
1
1
1
1
1
1
1
1
1
1
1
1
1
0.999998
1.00014
1.00167
1.01999
1.08152
1.18987
1.31722
1.40629
1.47518
1.48331
1.4861
1.49214
1.48906
1.48421
1.48346
1.48291
1.4831
1.48344
1.48355
1.48371
1.48453
1.48568
1.48736
1.4889
1.48895
1.48871
1.48853
1.48845
1.48849
1.48882
1.48955
1.49038
1.49067
1.49066
1.49044
1.48978
1.48917
1.48898
1.48894
1.48901
1.48924
1.48947
1.48946
1.48919
1.48882
1.48838
1.48791
1.48767
1.48755
1.48741
1.48736
1.48754
1.4879
1.48798
1.48796
1.48785
1.48754
1.48714
1.48685
1.48666
1.48647
1.48637
1.48634
1.48611
1
1
1
1
1
1
1
1
1
1
1
1
1
1
1
1
1
1
0.999998
1.00004
1.00078
1.00705
1.05515
1.14542
1.27045
1.36328
1.44114
1.47992
1.48624
1.48774
1.48951
1.48843
1.4857
1.48353
1.48165
1.48097
1.48096
1.48106
1.48189
1.4837
1.48445
1.48472
1.48505
1.48505
1.48512
1.4856
1.48694
1.48838
1.48896
1.48904
1.48898
1.48852
1.48834
1.48839
1.48853
1.48884
1.48927
1.48947
1.48949
1.48931
1.48894
1.48848
1.48814
1.48803
1.48799
1.48792
1.48795
1.48815
1.48839
1.48849
1.48853
1.48851
1.48829
1.48794
1.48769
1.48758
1.48753
1.48755
1.48759
1.48744
1
1
1
1
1
1
1
1
1
1
1
1
1
1
1
1
1
1
1
1
0.999999
1
1.0004
1.00376
1.02755
1.11314
1.22451
1.33753
1.40433
1.45782
1.47686
1.48113
1.48452
1.48485
1.48404
1.48336
1.48296
1.48213
1.48201
1.48241
1.48225
1.48177
1.48195
1.48205
1.48209
1.48257
1.4839
1.48541
1.4859
1.48593
1.4857
1.48546
1.48553
1.48587
1.48646
1.48721
1.48787
1.48824
1.48846
1.48842
1.48827
1.48825
1.48824
1.48823
1.48822
1.48814
1.48816
1.48836
1.48854
1.48862
1.48865
1.48862
1.48842
1.48817
1.488
1.48795
1.48803
1.48816
1.48821
1.48804
1
1
1
1
1
1
1
1
1
1
1
1
1
1
1
1
1
1
1
1
1
1
1
0.999999
1.00011
1.00244
1.01515
1.08274
1.19859
1.31495
1.38133
1.43089
1.4668
1.47597
1.4783
1.48108
1.48172
1.48149
1.48171
1.48209
1.48189
1.48198
1.48242
1.48258
1.48231
1.48222
1.48267
1.48325
1.48318
1.48303
1.48256
1.48223
1.48233
1.48282
1.48369
1.48477
1.48561
1.48607
1.48637
1.48652
1.48661
1.48682
1.48711
1.48736
1.48749
1.48756
1.48771
1.48797
1.48811
1.48824
1.48827
1.48819
1.48805
1.48795
1.48792
1.48803
1.48826
1.48841
1.48841
1.48828
1
1
1
1
1
1
1
1
1
1
1
1
1
1
1
1
1
1
1
1
1
1
1
1
1
0.999999
1.00003
1.00144
1.01214
1.05599
1.16784
1.28509
1.37956
1.42039
1.4484
1.46126
1.46967
1.47451
1.47823
1.47912
1.479
1.47883
1.47928
1.47976
1.4802
1.48097
1.48195
1.48228
1.48233
1.48215
1.48167
1.48083
1.48053
1.48072
1.48138
1.48237
1.48313
1.48342
1.48366
1.48389
1.48412
1.48446
1.48493
1.48539
1.4857
1.48599
1.48634
1.48658
1.48675
1.48697
1.48705
1.48707
1.48714
1.48727
1.48745
1.48772
1.48809
1.48832
1.48833
1.48824
1
1
1
1
1
1
1
1
1
1
1
1
1
1
1
1
1
1
1
1
1
1
1
1
1
1
1
0.999999
1.00002
1.00062
1.00919
1.04163
1.14098
1.27079
1.38691
1.42588
1.44414
1.45633
1.4631
1.46854
1.46927
1.46957
1.47083
1.47247
1.47443
1.47647
1.47795
1.47915
1.47974
1.47974
1.47957
1.47889
1.47893
1.47936
1.48025
1.48099
1.48138
1.48154
1.48159
1.48164
1.48167
1.48184
1.48241
1.4831
1.48358
1.48399
1.48429
1.48447
1.48474
1.48502
1.48519
1.48533
1.48556
1.48584
1.48621
1.4867
1.48732
1.48766
1.48775
1.48777
1
1
1
1
1
1
1
1
1
1
1
1
1
1
1
1
1
1
1
1
1
1
1
1
1
1
1
1
1
0.999999
1.00002
1.00036
1.00652
1.04069
1.13201
1.25951
1.37042
1.44005
1.4529
1.46275
1.46409
1.46473
1.46598
1.46606
1.46716
1.46921
1.47096
1.47253
1.4739
1.47459
1.4752
1.47586
1.47606
1.47661
1.47766
1.47841
1.47885
1.47915
1.47926
1.4793
1.47937
1.47952
1.4801
1.48091
1.48151
1.48192
1.48215
1.48249
1.48293
1.48311
1.4831
1.48318
1.4835
1.4839
1.48439
1.48511
1.4859
1.4863
1.48649
1.48671
1
1
1
1
1
1
1
1
1
1
1
1
1
1
1
1
1
1
1
1
1
1
1
1
1
1
1
1
1
1
1
0.999999
1.00001
1.0004
1.00504
1.04107
1.1229
1.25449
1.366
1.43911
1.46253
1.46893
1.47205
1.47015
1.46883
1.469
1.46969
1.47029
1.47075
1.47092
1.47094
1.47148
1.47268
1.47382
1.47505
1.47576
1.47613
1.47644
1.47649
1.47646
1.47646
1.47666
1.47733
1.47819
1.47887
1.47932
1.47967
1.4802
1.48082
1.48112
1.48114
1.48119
1.48153
1.48203
1.48262
1.48348
1.48428
1.48476
1.48504
1.48522
1
1
1
1
1
1
1
1
1
1
1
1
1
1
1
1
1
1
1
1
1
1
1
1
1
1
1
1
1
1
1
1
1
1
1.00001
1.00044
1.00434
1.03911
1.13022
1.2588
1.36574
1.43817
1.46302
1.47197
1.47414
1.474
1.47463
1.47505
1.47437
1.47289
1.47138
1.47104
1.47169
1.47286
1.47367
1.47368
1.47368
1.47368
1.47364
1.4736
1.47368
1.47412
1.47489
1.47562
1.47623
1.47673
1.47715
1.47772
1.47838
1.4787
1.47874
1.47881
1.47916
1.47972
1.48046
1.48143
1.48224
1.48294
1.48349
1.4836
1
1
1
1
1
1
1
1
1
1
1
1
1
1
1
1
1
1
1
1
1
1
1
1
1
1
1
1
1
1
1
1
1
1
1
1
1.00001
1.0005
1.00519
1.04286
1.15297
1.27883
1.36879
1.43203
1.46426
1.47068
1.47317
1.47522
1.47502
1.4736
1.47263
1.47264
1.47342
1.47458
1.47479
1.47454
1.47391
1.47306
1.47251
1.47245
1.47262
1.4732
1.47393
1.4744
1.47478
1.47513
1.47541
1.47582
1.47631
1.47655
1.47656
1.4766
1.47691
1.47751
1.47831
1.47923
1.48006
1.4809
1.48163
1.4818
1
1
1
1
1
1
1
1
1
1
1
1
1
1
1
1
1
1
1
1
1
1
1
1
1
1
1
1
1
1
1
1
1
1
1
1
1
1
1.00001
1.00071
1.00823
1.04971
1.17099
1.30752
1.39688
1.43208
1.45117
1.46664
1.46853
1.46727
1.46827
1.4708
1.47268
1.47365
1.47404
1.47404
1.47361
1.47287
1.47239
1.47219
1.4724
1.47318
1.47396
1.47433
1.47453
1.47465
1.47473
1.47487
1.47502
1.47506
1.475
1.47502
1.47529
1.47578
1.47646
1.47721
1.47799
1.47883
1.47954
1.47978
1
1
1
1
1
1
1
1
1
1
1
1
1
1
1
1
1
1
1
1
1
1
1
1
1
1
1
1
1
1
1
1
1
1
1
1
1
1
1
1
1.00003
1.00099
1.01328
1.06699
1.19848
1.34186
1.4268
1.44932
1.45966
1.45911
1.46173
1.46546
1.46789
1.46917
1.47058
1.47163
1.4716
1.4712
1.47081
1.4707
1.47121
1.47216
1.47304
1.47376
1.47407
1.47411
1.47425
1.47436
1.47428
1.47402
1.47383
1.4739
1.47418
1.47455
1.47503
1.47558
1.47625
1.47699
1.47754
1.47776
1
1
1
1
1
1
1
1
1
1
1
1
1
1
1
1
1
1
1
1
1
1
1
1
1
1
1
1
1
1
1
1
1
1
1
1
1
1
1
1
1
1
1.00008
1.0017
1.02201
1.09941
1.24048
1.36834
1.44455
1.46127
1.46732
1.47043
1.46907
1.46919
1.47015
1.4705
1.47039
1.4699
1.46956
1.46933
1.46959
1.47015
1.47078
1.47204
1.47309
1.4734
1.47364
1.4737
1.47344
1.47296
1.47282
1.47296
1.47332
1.47371
1.47403
1.47441
1.47491
1.47549
1.47582
1.47595
1
1
1
1
1
1
1
1
1
1
1
1
1
1
1
1
1
1
1
1
1
1
1
1
1
1
1
1
1
1
1
1
1
1
1
1
1
1
1
1
1
1
1
1
1.00025
1.00388
1.04045
1.13808
1.2905
1.39841
1.45472
1.47395
1.47386
1.47444
1.47513
1.47523
1.47466
1.47325
1.4722
1.47141
1.4707
1.47026
1.4702
1.47069
1.47187
1.4725
1.47292
1.47307
1.47277
1.47214
1.47201
1.4721
1.47238
1.47277
1.47321
1.47362
1.47402
1.47445
1.47457
1.47448
1
1
1
1
1
1
1
1
1
1
1
1
1
1
1
1
1
1
1
1
1
1
1
1
1
1
1
1
1
1
1
1
1
1
1
1
1
1
1
1
1
1
1
1
1
1.00001
1.00076
1.00852
1.07386
1.21431
1.34043
1.42128
1.45124
1.46736
1.4731
1.47384
1.47428
1.47465
1.47491
1.47461
1.47359
1.47228
1.47162
1.4715
1.47182
1.47245
1.47288
1.47308
1.4728
1.47189
1.47146
1.47146
1.47158
1.47197
1.47259
1.47312
1.47351
1.47383
1.47386
1.47353
1
1
1
1
1
1
1
1
1
1
1
1
1
1
1
1
1
1
1
1
1
1
1
1
1
1
1
1
1
1
1
1
1
1
1
1
1
1
1
1
1
1
1
1
1
1
1
1.00006
1.00264
1.02552
1.1208
1.279
1.40036
1.43629
1.45491
1.46264
1.46377
1.46614
1.47016
1.47251
1.47275
1.47201
1.47161
1.47168
1.47203
1.47258
1.47299
1.47316
1.47303
1.47237
1.47149
1.47118
1.47126
1.47166
1.4724
1.47296
1.47321
1.47326
1.4732
1.47288
1
1
1
1
1
1
1
1
1
1
1
1
1
1
1
1
1
1
1
1
1
1
1
1
1
1
1
1
1
1
1
1
1
1
1
1
1
1
1
1
1
1
1
1
1
1
1
1
1.00001
1.00038
1.0081
1.05528
1.20506
1.35015
1.43704
1.46453
1.46253
1.46338
1.46698
1.46883
1.47065
1.47059
1.47057
1.47059
1.47082
1.47132
1.4721
1.47279
1.47283
1.47251
1.47187
1.47145
1.47143
1.47169
1.47215
1.4725
1.47269
1.47277
1.47274
1.47251
1
1
1
1
1
1
1
1
1
1
1
1
1
1
1
1
1
1
1
1
1
1
1
1
1
1
1
1
1
1
1
1
1
1
1
1
1
1
1
1
1
1
1
1
1
1
1
1
1
1
1.00006
1.00167
1.02963
1.12378
1.27844
1.4152
1.45545
1.46851
1.47634
1.47607
1.4739
1.47296
1.47258
1.47183
1.47127
1.47109
1.47144
1.47232
1.47251
1.47242
1.4722
1.47203
1.47201
1.47206
1.47224
1.47236
1.47233
1.47221
1.47197
1.47198
1
1
1
1
1
1
1
1
1
1
1
1
1
1
1
1
1
1
1
1
1
1
1
1
1
1
1
1
1
1
1
1
1
1
1
1
1
1
1
1
1
1
1
1
1
1
1
1
1
1
1
1.00001
1.00058
1.00839
1.06946
1.21779
1.36006
1.43362
1.46937
1.47326
1.47337
1.47502
1.47608
1.47567
1.47482
1.47341
1.47273
1.47275
1.4725
1.47229
1.47231
1.47246
1.47262
1.47274
1.47284
1.47283
1.47261
1.47217
1.47172
1.47165
1
1
1
1
1
1
1
1
1
1
1
1
1
1
1
1
1
1
1
1
1
1
1
1
1
1
1
1
1
1
1
1
1
1
1
1
1
1
1
1
1
1
1
1
1
1
1
1
1
1
1
1
1
1.00009
1.00266
1.03216
1.17748
1.31992
1.42837
1.44718
1.45516
1.46437
1.47149
1.47465
1.47423
1.47426
1.47405
1.47307
1.47229
1.47188
1.47183
1.47204
1.4724
1.47282
1.47304
1.47308
1.473
1.47282
1.47237
1.47189
1
1
1
1
1
1
1
1
1
1
1
1
1
1
1
1
1
1
1
1
1
1
1
1
1
1
1
1
1
1
1
1
1
1
1
1
1
1
1
1
1
1
1
1
1
1
1
1
1
1
1
1
1
1
1.00002
1.00097
1.02177
1.10247
1.25746
1.42198
1.45326
1.46056
1.46562
1.47088
1.47285
1.47323
1.47338
1.47294
1.47214
1.47151
1.47149
1.47177
1.47169
1.47132
1.47156
1.47212
1.4727
1.47297
1.47296
1.47269
1
1
1
1
1
1
1
1
1
1
1
1
1
1
1
1
1
1
1
1
1
1
1
1
1
1
1
1
1
1
1
1
1
1
1
1
1
1
1
1
1
1
1
1
1
1
1
1
1
1
1
1
1
1
1
1.00001
1.00037
1.00721
1.05397
1.23397
1.38553
1.44499
1.47304
1.47505
1.47534
1.47514
1.47453
1.47411
1.47352
1.47385
1.47412
1.47396
1.47286
1.47133
1.47061
1.47059
1.47089
1.47197
1.47294
1.47298
1
1
1
1
1
1
1
1
1
1
1
1
1
1
1
1
1
1
1
1
1
1
1
1
1
1
1
1
1
1
1
1
1
1
1
1
1
1
1
1
1
1
1
1
1
1
1
1
1
1
1
1
1
1
1
1
1
1.00009
1.00243
1.04363
1.20694
1.33882
1.43692
1.4548
1.46488
1.47158
1.47232
1.47207
1.47166
1.47312
1.47629
1.4771
1.47671
1.47443
1.47124
1.47006
1.47003
1.47077
1.47203
1.47289
1
1
1
1
1
1
1
1
1
1
1
1
1
1
1
1
1
1
1
1
1
1
1
1
1
1
1
1
1
1
1
1
1
1
1
1
1
1
1
1
1
1
1
1
1
1
1
1
1
1
1
1
1
1
1
1
1
1
1.00003
1.00188
1.03139
1.13508
1.30269
1.43199
1.46218
1.46902
1.46744
1.46532
1.464
1.46514
1.4707
1.47632
1.47779
1.4768
1.47421
1.472
1.47129
1.47129
1.47186
1.47309
1
1
1
1
1
1
1
1
1
1
1
1
1
1
1
1
1
1
1
1
1
1
1
1
1
1
1
1
1
1
1
1
1
1
1
1
1
1
1
1
1
1
1
1
1
1
1
1
1
1
1
1
1
1
1
1
1
1
1
1.00002
1.00086
1.01429
1.08993
1.28944
1.42035
1.47236
1.47603
1.4747
1.46788
1.46528
1.46759
1.47158
1.47453
1.47516
1.47402
1.47265
1.47207
1.47211
1.47239
1.47769
1
1
1
1
1
1
1
1
1
1
1
1
1
1
1
1
1
1
1
1
1
1
1
1
1
1
1
1
1
1
1
1
1
1
1
1
1
1
1
1
1
1
1
1
1
1
1
1
1
1
1
1
1
1
1
1
1
1
1
1
1
1.0003
1.00733
1.09172
1.26874
1.3903
1.46016
1.47588
1.47652
1.4741
1.47159
1.47143
1.47164
1.47267
1.47258
1.47236
1.47241
1.47256
1.47305
1.51699
1
1
1
1
1
1
1
1
1
1
1
1
1
1
1
1
1
1
1
1
1
1
1
1
1
1
1
1
1
1
1
1
1
1
1
1
1
1
1
1
1
1
1
1
1
1
1
1
1
1
1
1
1
1
1
1
1
1
1
1
1
1
1.00019
1.00733
1.07537
1.23408
1.37853
1.4557
1.47223
1.47869
1.47963
1.47822
1.47512
1.4727
1.47219
1.47228
1.47268
1.47309
1.47874
1.66991
1
1
1
1
1
1
1
1
1
1
1
1
1
1
1
1
1
1
1
1
1
1
1
1
1
1
1
1
1
1
1
1
1
1
1
1
1
1
1
1
1
1
1
1
1
1
1
1
1
1
1
1
1
1
1
1
1
1
1
1
1
1
1
1.00016
1.00492
1.05682
1.20985
1.37441
1.44077
1.47317
1.47708
1.47594
1.47393
1.47229
1.4716
1.472
1.47322
1.48366
1.57414
1.866
1
1
1
1
1
1
1
1
1
1
1
1
1
1
1
1
1
1
1
1
1
1
1
1
1
1
1
1
1
1
1
1
1
1
1
1
1
1
1
1
1
1
1
1
1
1
1
1
1
1
1
1
1
1
1
1
1
1
1
1
1
1
1
1
1.00008
1.00359
1.04082
1.212
1.38786
1.46142
1.46766
1.46947
1.4701
1.46943
1.46876
1.46998
1.48578
1.5996
1.82415
1.97545
1
1
1
1
1
1
1
1
1
1
1
1
1
1
1
1
1
1
1
1
1
1
1
1
1
1
1
1
1
1
1
1
1
1
1
1
1
1
1
1
1
1
1
1
1
1
1
1
1
1
1
1
1
1
1
1
1
1
1
1
1
1
1
1
1
1.00006
1.00251
1.04902
1.19976
1.37163
1.45151
1.47422
1.47392
1.4725
1.47115
1.4928
1.63085
1.84745
1.94604
1.97662
1
1
1
1
1
1
1
1
1
1
1
1
1
1
1
1
1
1
1
1
1
1
1
1
1
1
1
1
1
1
1
1
1
1
1
1
1
1
1
1
1
1
1
1
1
1
1
1
1
1
1
1
1
1
1
1
1
1
1
1
1
1
1
1
1
1
1.00006
1.00287
1.04226
1.20123
1.37143
1.44414
1.45326
1.47074
1.51733
1.67066
1.86487
1.9742
1.97658
1.97496
1
1
1
1
1
1
1
1
1
1
1
1
1
1
1
1
1
1
1
1
1
1
1
1
1
1
1
1
1
1
1
1
1
1
1
1
1
1
1
1
1
1
1
1
1
1
1
1
1
1
1
1
1
1
1
1
1
1
1
1
1
1
1
1
1
1
1
1.00005
1.00299
1.03921
1.19784
1.37756
1.46791
1.5799
1.70153
1.84107
1.91735
1.96818
1.96811
1.96404
1
1
1
1
1
1
1
1
1
1
1
1
1
1
1
1
1
1
1
1
1
1
1
1
1
1
1
1
1
1
1
1
1
1
1
1
1
1
1
1
1
1
1
1
1
1
1
1
1
1
1
1
1
1
1
1
1
1
1
1
1
1
1
1
1
1
1
1
1.00007
1.00243
1.04924
1.24356
1.52656
1.7569
1.95233
2.02715
2.00339
1.97212
1.96194
1.9557
)
;

boundaryField
{
    inlet
    {
        type            fixedValue;
        value           uniform 1;
    }
    outlet
    {
        type            zeroGradient;
    }
    bottom
    {
        type            symmetryPlane;
    }
    top
    {
        type            symmetryPlane;
    }
    obstacle
    {
        type            zeroGradient;
    }
    defaultFaces
    {
        type            empty;
    }
}


// ************************************************************************* //
