/*--------------------------------*- C++ -*----------------------------------*\
| =========                 |                                                 |
| \\      /  F ield         | OpenFOAM: The Open Source CFD Toolbox           |
|  \\    /   O peration     | Version:  2206                                  |
|   \\  /    A nd           | Website:  www.openfoam.com                      |
|    \\/     M anipulation  |                                                 |
\*---------------------------------------------------------------------------*/
FoamFile
{
    version     2.0;
    format      ascii;
    arch        "LSB;label=32;scalar=64";
    class       volScalarField;
    location    "0.1";
    object      rho;
}
// * * * * * * * * * * * * * * * * * * * * * * * * * * * * * * * * * * * * * //

dimensions      [1 -3 0 0 0 0 0];

internalField   nonuniform List<scalar> 
4800
(
1.40001
1.40001
1.40001
1.40001
1.40001
1.40001
1.40001
1.40001
1.40001
1.40001
1.40001
1.40001
1.40001
1.40001
1.40001
1.40001
1.40001
1.40001
1.40001
1.40001
1.40001
1.40001
1.40001
1.40001
1.40001
1.40001
1.40001
1.40001
1.40001
1.40001
1.40001
1.40001
1.40001
1.40001
1.40001
1.40001
1.40001
1.40001
1.40001
1.40001
1.40001
1.40001
1.40001
1.40001
1.40001
1.40001
1.40001
1.40001
1.40001
1.40001
1.40001
1.40001
1.40001
1.40001
1.40001
1.40001
1.40001
1.40001
1.40001
1.40001
1.40001
1.40001
1.40001
1.40001
1.40001
1.40001
1.40001
1.40001
1.40001
1.40001
1.40001
1.40001
1.40001
1.40001
1.40001
1.40001
1.40001
1.40001
1.40001
1.40001
1.40001
1.40001
1.40001
1.40001
1.40001
1.40001
1.40001
1.40001
1.40001
1.40001
1.40001
1.40001
1.40001
1.40001
1.40001
1.40001
1.40001
1.40001
1.40001
1.40001
1.40001
1.40001
1.40001
1.40001
1.40001
1.40001
1.40001
1.40001
1.40001
1.40001
1.40001
1.40001
1.40001
1.40001
1.40001
1.40001
1.40001
1.40001
1.40001
1.40001
1.40001
1.40001
1.40001
1.40001
1.40001
1.40001
1.40001
1.40001
1.40001
1.40001
1.40001
1.40001
1.40001
1.40001
1.40001
1.40001
1.40001
1.40001
1.40001
1.40001
1.40001
1.40001
1.40001
1.40001
1.40001
1.40001
1.40001
1.40001
1.40001
1.40001
1.40001
1.40001
1.40001
1.40001
1.40001
1.40001
1.40001
1.40001
1.40001
1.40001
1.40001
1.40001
1.40001
1.40001
1.40001
1.40001
1.40001
1.40001
1.40001
1.40001
1.40001
1.40001
1.40001
1.40001
1.40001
1.40001
1.40001
1.40001
1.40001
1.40001
1.40001
1.40001
1.40001
1.40001
1.40001
1.40001
1.40001
1.40001
1.40001
1.40001
1.40001
1.40001
1.40001
1.40001
1.40001
1.40001
1.40001
1.40001
1.40001
1.40001
1.40001
1.40001
1.40001
1.40001
1.40001
1.40001
1.40001
1.40001
1.40001
1.40001
1.40001
1.40001
1.40001
1.40001
1.40001
1.40001
1.40001
1.40001
1.40001
1.40001
1.40001
1.40001
1.40001
1.40001
1.40001
1.40001
1.40001
1.40001
1.40001
1.40001
1.40001
1.40001
1.40001
1.40001
1.40001
1.40001
1.40001
1.40001
1.40001
1.40001
1.40001
1.40001
1.40001
1.40001
1.40001
1.40001
1.40001
1.40001
1.40001
1.40001
1.40001
1.40001
1.40001
1.40001
1.40001
1.40001
1.40001
1.40001
1.40001
1.40001
1.40001
1.40001
1.40001
1.40001
1.40001
1.40001
1.40001
1.40001
1.40001
1.40001
1.40001
1.40001
1.40001
1.40001
1.40001
1.40001
1.40001
1.40001
1.40001
1.40001
1.40001
1.40001
1.40001
1.40001
1.40001
1.40001
1.40001
1.40001
1.40001
1.40001
1.40001
1.40001
1.40001
1.40001
1.40001
1.40001
1.40001
1.40001
1.40001
1.40001
1.40001
1.40001
1.40001
1.40001
1.40001
1.40001
1.40001
1.40001
1.40001
1.40001
1.40001
1.40001
1.40001
1.40001
1.40001
1.40001
1.40001
1.40001
1.40001
1.40001
1.40001
1.40001
1.40001
1.40001
1.40001
1.40001
1.40001
1.40001
1.40001
1.40001
1.40001
1.40001
1.40001
1.40001
1.40001
1.40001
1.40001
1.40001
1.40001
1.40001
1.40001
1.40001
1.40001
1.40001
1.40001
1.40001
1.40001
1.40001
1.40001
1.40001
1.40001
1.40001
1.40001
1.40001
1.40001
1.40001
1.40001
1.40001
1.40001
1.40001
1.40001
1.40001
1.40001
1.40001
1.40001
1.40001
1.40001
1.40001
1.40001
1.40001
1.40001
1.40001
1.40001
1.40001
1.40001
1.40001
1.40001
1.40001
1.40001
1.40001
1.40001
1.40001
1.40001
1.40001
1.40001
1.40001
1.40001
1.40001
1.40001
1.40001
1.40001
1.40001
1.40001
1.40001
1.40001
1.40001
1.40001
1.40001
1.40001
1.40001
1.40001
1.40001
1.40001
1.40001
1.40001
1.40001
1.40001
1.40001
1.40001
1.40001
1.40001
1.40001
1.40001
1.40001
1.40001
1.40001
1.40001
1.40001
1.40001
1.40001
1.40001
1.40001
1.40001
1.40001
1.40001
1.40001
1.40001
1.40001
1.40001
1.40001
1.40001
1.40001
1.40001
1.40001
1.40001
1.40001
1.40001
1.40001
1.40001
1.40001
1.40001
1.40001
1.40001
1.40001
1.40001
1.40001
1.40001
1.40001
1.40001
1.40001
1.40001
1.40001
1.40001
1.40001
1.40001
1.40001
1.40001
1.40001
1.40001
1.40001
1.40001
1.40001
1.40001
1.40001
1.40001
1.40001
1.40001
1.40001
1.40001
1.40001
1.40001
1.40001
1.40001
1.40001
1.40001
1.40001
1.40001
1.40001
1.40001
1.40001
1.40001
1.40001
1.40001
1.40001
1.40001
1.40001
1.40001
1.40001
1.40001
1.40001
1.40001
1.40001
1.40001
1.40001
1.40001
1.40001
1.40001
1.40001
1.40001
1.40001
1.40001
1.40001
1.40001
1.40001
1.40001
1.40001
1.40001
1.40001
1.40001
1.40001
1.40001
1.40001
1.40001
1.40001
1.40001
1.40001
1.40001
1.40001
1.40001
1.40001
1.40001
1.40001
1.40001
1.40001
1.40001
1.40001
1.40001
1.40001
1.40001
1.40001
1.40001
1.40001
1.40001
1.40001
1.40001
1.40001
1.40001
1.40001
1.40001
1.40001
1.40001
1.40001
1.40001
1.40001
1.40001
1.40001
1.40001
1.40001
1.40001
1.40001
1.40001
1.40001
1.40001
1.40001
1.40001
1.40001
1.40001
1.40001
1.40001
1.40001
1.40001
1.40001
1.40001
1.40001
1.40001
1.40001
1.40001
1.40001
1.40001
1.40001
1.40001
1.40001
1.40001
1.40001
1.40001
1.40001
1.40001
1.40001
1.40001
1.40001
1.40001
1.40001
1.40001
1.40001
1.40001
1.40001
1.40001
1.40001
1.40001
1.40001
1.40001
1.40001
1.40001
1.40001
1.40001
1.40001
1.40001
1.40001
1.40001
1.40001
1.40001
1.40001
1.40001
1.40001
1.40001
1.40001
1.40001
1.40001
1.40001
1.40001
1.40001
1.40001
1.40001
1.40001
1.40001
1.40001
1.40001
1.40001
1.40001
1.40001
1.40001
1.40001
1.40001
1.40001
1.40001
1.40001
1.40001
1.40001
1.40001
1.40001
1.40001
1.40001
1.40001
1.40001
1.40001
1.40001
1.40001
1.40001
1.40001
1.40001
1.40001
1.40001
1.40001
1.40001
1.40001
1.40001
1.40001
1.40001
1.40001
1.40001
1.40001
1.40001
1.40001
1.40001
1.40001
1.40001
1.40001
1.40001
1.40001
1.40001
1.40001
1.40001
1.40001
1.40001
1.40001
1.40001
1.40001
1.40001
1.40001
1.40001
1.40001
1.40001
1.40001
1.40001
1.40001
1.40001
1.40001
1.40001
1.40001
1.40001
1.40001
1.40001
1.40001
1.40001
1.40001
1.40001
1.40001
1.40001
1.40001
1.40001
1.40001
1.40001
1.40001
1.40001
1.40001
1.40001
1.40001
1.40001
1.40001
1.40001
1.40001
1.40001
1.40001
1.40001
1.40001
1.40001
1.40001
1.40001
1.40001
1.40001
1.40001
1.40001
1.40001
1.40001
1.40001
1.40001
1.40001
1.40001
1.40001
1.40001
1.40001
1.40001
1.40001
1.40001
1.40001
1.40001
1.40001
1.40001
1.40001
1.40001
1.40001
1.40001
1.40001
1.40001
1.40001
1.40001
1.40001
1.40001
1.40001
1.40001
1.40001
1.40001
1.40001
1.40001
1.40001
1.40001
1.40001
1.40001
1.40001
1.40001
1.40001
1.40001
1.40001
1.40001
1.40001
1.40001
1.40001
1.40001
1.40001
1.40001
1.40001
1.40001
1.40001
1.40001
1.40001
1.40001
1.40001
1.40001
1.40001
1.40001
1.40001
1.40001
1.40001
1.40001
1.40001
1.40001
1.40001
1.40001
1.40001
1.40001
1.40001
1.40001
1.40001
1.40001
1.40001
1.40001
1.40001
1.40001
1.40001
1.40001
1.40001
1.40001
1.40001
1.40001
1.40001
1.40001
1.40001
1.40001
1.40001
1.40001
1.40001
1.40001
1.40001
1.40001
1.40001
1.40001
1.40001
1.40001
1.40001
1.40001
1.40001
1.40001
1.40001
1.40001
1.40001
1.40001
1.40001
1.40001
1.40001
1.40001
1.40001
1.40001
1.40001
1.40001
1.40001
1.40001
1.40001
1.40001
1.40001
1.40001
1.40001
1.40001
1.40001
1.40001
1.40001
1.40001
1.40001
1.40001
1.40001
1.40001
1.40001
1.40001
1.40001
1.40001
1.40001
1.40001
1.40001
1.40001
1.40001
1.40001
1.40001
1.40001
1.40001
1.40001
1.40001
1.40001
1.40001
1.40001
1.40001
1.40001
1.40001
1.40001
1.40001
1.40001
1.40001
1.40001
1.40001
1.40001
1.40001
1.40001
1.40001
1.40001
1.40001
1.40001
1.40001
1.40001
1.40001
1.40001
1.40001
1.40001
1.40001
1.40001
1.40001
1.40001
1.40001
1.40001
1.40001
1.40001
1.40001
1.40001
1.40001
1.40001
1.40001
1.40001
1.40001
1.40001
1.40001
1.40001
1.40001
1.40001
1.40001
1.40001
1.40001
1.40001
1.40001
1.40001
1.40001
1.40001
1.40001
1.40001
1.40001
1.40001
1.40001
1.40001
1.40001
1.40001
1.40001
1.40001
1.40001
1.40001
1.40001
1.40001
1.40001
1.40001
1.40001
1.40001
1.40001
1.40001
1.40001
1.40001
1.40001
1.40001
1.40001
1.40001
1.40001
1.40001
1.40001
1.40001
1.40001
1.40001
1.40001
1.40001
1.40001
1.40001
1.40001
1.40001
1.40001
1.40001
1.40001
1.40001
1.40001
1.40001
1.40001
1.40001
1.40001
1.40001
1.40001
1.40001
1.40001
1.40001
1.40001
1.40001
1.40001
1.40001
1.40001
1.40001
1.40001
1.40001
1.40001
1.40001
1.40001
1.40001
1.40001
1.40001
1.40001
1.40001
1.40001
1.40001
1.40001
1.40001
1.40001
1.40001
1.40001
1.40001
1.40001
1.40001
1.40001
1.40001
1.40001
1.40001
1.40001
1.40001
1.40001
1.40001
1.40001
1.40001
1.40001
1.40001
1.40001
1.40001
1.40001
1.40001
1.40001
1.40001
1.40001
1.40001
1.40001
1.40001
1.40001
1.40001
1.40001
1.40001
1.40001
1.40001
1.40001
1.40001
1.40001
1.40001
1.40001
1.40001
1.40001
1.40001
1.40001
1.40001
1.40001
1.40001
1.40001
1.40001
1.40001
1.40001
1.40001
1.40001
1.40001
1.40001
1.40001
1.40001
1.40001
1.40001
1.40001
1.40001
1.40001
1.40001
1.40001
1.40001
1.40001
1.40001
1.40001
1.40001
1.40001
1.40001
1.40001
1.40001
1.40001
1.40001
1.40001
1.40001
1.40001
1.40001
1.40001
1.40001
1.40001
1.40001
1.40001
1.40001
1.40001
1.40001
1.40001
1.40001
1.40001
1.40001
1.40001
1.40001
1.40001
1.40001
1.40001
1.40001
1.40001
1.40001
1.40001
1.40001
1.40001
1.40001
1.40001
1.40001
1.40001
1.40001
1.40001
1.40001
1.40001
1.40001
1.40001
1.40001
1.40001
1.40001
1.40001
1.40001
1.40001
1.40001
1.40001
1.40001
1.40001
1.40001
1.40001
1.40001
1.40001
1.40001
1.40001
1.40001
1.40001
1.40001
1.40001
1.40001
1.40001
1.40001
1.40001
1.40001
1.40001
1.40001
1.40001
1.40001
1.40001
1.40001
1.40001
1.40001
1.40001
1.40001
1.40001
1.40001
1.40001
1.40001
1.40001
1.40001
1.40001
1.40001
1.40001
1.40001
1.40001
1.40001
1.40001
1.40001
1.40001
1.40001
1.40001
1.40001
1.40001
1.40001
1.40001
1.40001
1.40001
1.40001
1.40001
1.40001
1.40001
1.40001
1.40001
1.40001
1.40001
1.40001
1.40001
1.40001
1.40001
1.40001
1.40001
1.40001
1.40001
1.40001
1.40001
1.40001
1.40001
1.40001
1.40001
1.40001
1.40001
1.40001
1.40001
1.40001
1.40001
1.40001
1.40001
1.40001
1.40001
1.40001
1.40001
1.40001
1.40001
1.40001
1.40001
1.40001
1.40001
1.40001
1.40001
1.40001
1.40001
1.40001
1.40001
1.40001
1.40001
1.40001
1.40001
1.40001
1.40001
1.40001
1.40001
1.40001
1.40001
1.40001
1.40001
1.40001
1.40001
1.40001
1.40001
1.40001
1.40001
1.40001
1.40001
1.40001
1.40001
1.40001
1.40001
1.40001
1.40001
1.40001
1.40001
1.40001
1.40001
1.40001
1.40001
1.40001
1.40001
1.40001
1.40001
1.40001
1.40001
1.40001
1.40001
1.40001
1.40001
1.40001
1.40001
1.40001
1.40001
1.40001
1.40001
1.40001
1.40001
1.40001
1.40001
1.40001
1.40001
1.40001
1.40001
1.40001
1.40001
1.40001
1.40001
1.40001
1.40001
1.40001
1.40001
1.40001
1.40001
1.40001
1.40001
1.40001
1.40001
1.40001
1.40001
1.40001
1.40001
1.40001
1.40001
1.40001
1.40001
1.40001
1.40001
1.40001
1.40001
1.40001
1.40001
1.40001
1.40001
1.40001
1.40001
1.40001
1.40001
1.40001
1.40001
1.40001
1.40001
1.40001
1.40001
1.40001
1.40001
1.40001
1.40001
1.40001
1.40001
1.40001
1.40001
1.40001
1.40001
1.40001
1.40001
1.40001
1.40001
1.40001
1.40001
1.40001
1.40001
1.40001
1.40001
1.40001
1.40001
1.40001
1.40001
1.40001
1.40001
1.40001
1.40001
1.40001
1.40001
1.40001
1.40001
1.40001
1.40001
1.40001
1.40001
1.40001
1.40001
1.40001
1.40001
1.40001
1.40001
1.40001
1.40001
1.40001
1.40001
1.40001
1.40001
1.40001
1.40001
1.40001
1.40001
1.40001
1.40001
1.40001
1.40001
1.40001
1.40001
1.40001
1.40001
1.40001
1.40001
1.40001
1.40001
1.40001
1.40001
1.40001
1.40001
1.40001
1.40001
1.40001
1.40001
1.40001
1.40001
1.40001
1.40001
1.40001
1.40001
1.40001
1.40001
1.40001
1.40001
1.40001
1.40001
1.40001
1.40001
1.40001
1.40001
1.40001
1.40001
1.40001
1.40001
1.40001
1.40001
1.40001
1.40001
1.40001
1.40001
1.40001
1.40001
1.40001
1.40001
1.40001
1.40001
1.40001
1.40001
1.40001
1.40001
1.40001
1.40001
1.40001
1.40001
1.40001
1.40001
1.40001
1.40001
1.40001
1.40001
1.40001
1.40001
1.40001
1.40001
1.40001
1.40001
1.40001
1.40001
1.40001
1.40001
1.40001
1.40001
1.40001
1.40001
1.40001
1.40001
1.40001
1.40001
1.40001
1.40001
1.40001
1.40001
1.40001
1.40001
1.40001
1.40001
1.40001
1.40001
1.40001
1.40001
1.40001
1.40001
1.40001
1.40001
1.40001
1.40001
1.40001
1.40001
1.40001
1.40001
1.40001
1.40001
1.40001
1.40001
1.40001
1.40001
1.40001
1.40001
1.40001
1.40001
1.40001
1.40001
1.40001
1.40001
1.40001
1.40001
1.40001
1.40001
1.40001
1.40001
1.40001
1.40001
1.40001
1.40001
1.40001
1.40001
1.40001
1.40001
1.40001
1.40001
1.40001
1.40001
1.40001
1.40001
1.40001
1.40001
1.40001
1.40001
1.40001
1.40001
1.40001
1.40001
1.40001
1.40001
1.40001
1.40001
1.40001
1.40001
1.40001
1.40001
1.40001
1.40001
1.40001
1.40001
1.40001
1.40001
1.40001
1.40001
1.40001
1.40001
1.40001
1.40001
1.40001
1.40001
1.40001
1.40001
1.40001
1.40001
1.40001
1.40001
1.40001
1.40001
1.40001
1.40001
1.40001
1.40001
1.40001
1.40001
1.40001
1.40001
1.40001
1.40001
1.40001
1.40001
1.40001
1.40001
1.40001
1.40001
1.40001
1.40001
1.40001
1.40001
1.40001
1.40001
1.40001
1.40001
1.40001
1.40001
1.40001
1.40001
1.40001
1.40001
1.40001
1.40001
1.40001
1.40001
1.40001
1.40001
1.40001
1.40001
1.40001
1.40001
1.40001
1.40001
1.40001
1.40001
1.40001
1.40001
1.40001
1.40001
1.40001
1.40001
1.40001
1.40001
1.40001
1.40001
1.40001
1.40001
1.40001
1.40001
1.40001
1.40001
1.40001
1.40001
1.40001
1.40001
1.40001
1.40001
1.40001
1.40001
1.40001
1.40001
1.40001
1.40001
1.40001
1.40001
1.40001
1.40001
1.40001
1.40001
1.40001
1.65399
2.03862
2.42865
2.78129
3.2039
3.51328
3.77168
4.04308
4.15786
4.29639
4.31066
4.26633
4.12627
3.88346
3.61818
3.49813
3.42715
3.31345
3.2604
3.26403
3.28263
3.32205
3.35935
3.37799
3.37768
3.38125
3.38755
3.39372
3.39687
3.40125
3.40872
3.41817
3.4235
3.42379
3.42137
3.41489
3.40515
3.39591
3.3918
3.39199
3.39279
3.39481
3.39864
3.40408
3.40911
3.41198
3.41342
3.41335
3.41273
3.41271
3.41335
3.41446
3.41542
3.41536
3.41391
3.41035
3.40568
3.4027
3.4029
3.40436
3.40708
3.40873
3.40736
3.40376
3.39793
3.38799
3.3728
3.35491
3.33897
3.32676
3.31726
3.30872
3.29967
3.28939
3.28159
3.27645
3.27249
3.2696
3.26737
3.26545
1.40041
1.40309
1.44148
1.5139
1.6015
1.7945
2.00854
2.2996
2.5988
2.90994
3.18976
3.38687
3.47403
3.51972
3.60274
3.59915
3.5989
3.54202
3.4536
3.431
3.40943
3.40297
3.38021
3.3556
3.34245
3.3447
3.3523
3.36768
3.37844
3.38435
3.39119
3.40001
3.40535
3.40767
3.40752
3.40503
3.40035
3.39911
3.4011
3.40352
3.40389
3.4026
3.40054
3.39859
3.39731
3.39655
3.3959
3.39538
3.39608
3.399
3.4041
3.40893
3.41136
3.41153
3.41062
3.41012
3.4096
3.40867
3.40922
3.4102
3.41031
3.40927
3.40587
3.39936
3.39078
3.3791
3.36331
3.34479
3.32675
3.31425
3.30706
3.30158
3.29592
3.29158
3.28748
3.28292
3.27837
3.27458
3.27162
3.26652
1.40001
1.40001
1.4
1.40001
1.39982
1.40108
1.40782
1.43706
1.51796
1.6684
1.96542
2.36725
2.87736
3.28633
3.55246
3.72488
3.71527
3.68724
3.63188
3.57414
3.51031
3.41151
3.36549
3.32167
3.31554
3.32006
3.33265
3.35154
3.36271
3.35955
3.35494
3.35589
3.36115
3.36902
3.3764
3.38067
3.3845
3.38874
3.39383
3.39838
3.39898
3.39767
3.39521
3.39201
3.38777
3.38411
3.38173
3.37987
3.3792
3.38061
3.38485
3.39051
3.39563
3.39953
3.40189
3.40315
3.40383
3.40386
3.40476
3.40615
3.40663
3.40541
3.40193
3.39555
3.38534
3.37138
3.3549
3.33667
3.31631
3.30072
3.29522
3.29234
3.29084
3.2891
3.28662
3.28301
3.27891
3.27467
3.27174
3.26564
1.40001
1.40001
1.4
1.4
1.4
1.4
1.4
1.40001
1.40004
1.40009
1.40616
1.44088
1.56886
1.90586
2.32935
2.88571
3.17254
3.36278
3.46003
3.44501
3.44967
3.47071
3.47011
3.43852
3.38886
3.36677
3.35511
3.34338
3.32614
3.30815
3.30795
3.31164
3.32048
3.33277
3.34268
3.3472
3.35138
3.35935
3.37066
3.37986
3.38377
3.38364
3.38205
3.37824
3.37344
3.37098
3.36917
3.36766
3.36678
3.36855
3.37233
3.37441
3.37565
3.37697
3.37914
3.38121
3.38327
3.38584
3.38878
3.39186
3.39366
3.39294
3.38996
3.38363
3.37361
3.3598
3.34292
3.32515
3.30403
3.28632
3.28126
3.27957
3.28014
3.28214
3.28145
3.27872
3.27475
3.27042
3.26738
3.26034
1.40001
1.40001
1.40001
1.40001
1.40001
1.40001
1.4
1.4
1.4
1.4
1.4
1.40003
1.39996
1.40603
1.4445
1.59278
1.97246
2.38435
2.87678
3.15034
3.37016
3.51214
3.50355
3.4965
3.46844
3.4297
3.36092
3.3297
3.31503
3.29743
3.29732
3.30038
3.30576
3.31164
3.32144
3.32173
3.32232
3.32703
3.33542
3.3436
3.34924
3.35261
3.35421
3.35546
3.35801
3.36063
3.36219
3.36303
3.36262
3.36316
3.3652
3.36541
3.36519
3.36448
3.36448
3.36445
3.36456
3.36553
3.36663
3.36792
3.36963
3.36999
3.36843
3.36396
3.3558
3.34344
3.32666
3.30913
3.29156
3.2768
3.27129
3.26931
3.26875
3.26922
3.26808
3.26523
3.26118
3.25669
3.25294
3.24658
1.40001
1.40001
1.40001
1.40001
1.40001
1.40001
1.40001
1.40001
1.40001
1.40001
1.4
1.4
1.4
1.40001
1.39997
1.40016
1.41132
1.46052
1.63252
2.03391
2.45576
2.94744
3.1289
3.29431
3.34863
3.338
3.34685
3.37
3.37694
3.36112
3.34924
3.34068
3.33135
3.3238
3.31576
3.30692
3.30604
3.31276
3.32053
3.32594
3.32819
3.32915
3.33012
3.33325
3.34067
3.34969
3.35608
3.35837
3.35874
3.35905
3.35998
3.36032
3.35934
3.35836
3.35778
3.35557
3.35238
3.35099
3.35044
3.35008
3.35049
3.35147
3.35041
3.34667
3.33935
3.32818
3.31233
3.29298
3.27729
3.26816
3.2636
3.26137
3.25928
3.25698
3.25368
3.248
3.24008
3.23282
3.22832
3.22623
1.40001
1.40001
1.40001
1.40001
1.40001
1.40001
1.40001
1.40001
1.40001
1.40001
1.40001
1.40001
1.40001
1.40001
1.4
1.4
1.40001
1.39998
1.40065
1.41875
1.48558
1.70291
2.11806
2.56129
2.99355
3.16124
3.32702
3.40392
3.39944
3.39747
3.38761
3.37204
3.34107
3.332
3.32788
3.32511
3.32415
3.31967
3.31643
3.31607
3.31585
3.3167
3.31962
3.32407
3.32925
3.33467
3.34035
3.34459
3.34665
3.3486
3.35013
3.35208
3.35385
3.35436
3.35366
3.35109
3.34836
3.34786
3.34775
3.34758
3.34816
3.34856
3.34676
3.34227
3.33482
3.32379
3.30778
3.28642
3.26807
3.26064
3.25694
3.25426
3.25138
3.24739
3.24125
3.23233
3.22317
3.21637
3.2119
3.21039
1.40001
1.40001
1.40001
1.40001
1.40001
1.40001
1.40001
1.40001
1.40001
1.40001
1.40001
1.40001
1.40001
1.40001
1.40001
1.4
1.4
1.4
1.4
1.40002
1.40003
1.40199
1.43095
1.51621
1.79558
2.23302
2.69244
3.04942
3.16116
3.27291
3.29459
3.30331
3.32435
3.34929
3.35733
3.35572
3.35227
3.35028
3.34899
3.3457
3.33902
3.33385
3.33299
3.33414
3.336
3.33628
3.33502
3.33424
3.33355
3.33426
3.33626
3.3395
3.34443
3.3483
3.34944
3.35024
3.35013
3.35007
3.34993
3.34985
3.35038
3.35
3.34776
3.34262
3.33427
3.32259
3.30606
3.28371
3.26291
3.2549
3.25084
3.24707
3.24228
3.23612
3.22872
3.22142
3.21602
3.21139
3.20725
3.20452
1.40001
1.40001
1.40001
1.40001
1.40001
1.40001
1.40001
1.40001
1.40001
1.40001
1.40001
1.40001
1.40001
1.40001
1.40001
1.40001
1.40001
1.40001
1.4
1.4
1.4
1.40001
1.4
1.40016
1.40554
1.45415
1.57976
1.92612
2.36983
2.88041
3.11664
3.21779
3.31863
3.34995
3.35247
3.34643
3.34853
3.36113
3.36312
3.35755
3.35184
3.35298
3.35926
3.369
3.36999
3.36291
3.34882
3.33751
3.33528
3.3359
3.33695
3.33778
3.34
3.34348
3.34551
3.34631
3.34751
3.34849
3.34888
3.34986
3.3507
3.34981
3.34722
3.34141
3.33159
3.31845
3.30087
3.27987
3.25815
3.24501
3.2404
3.23755
3.23475
3.23176
3.22815
3.22387
3.22043
3.21684
3.2124
3.2052
1.40001
1.40001
1.40001
1.40001
1.40001
1.40001
1.40001
1.40001
1.40001
1.40001
1.40001
1.40001
1.40001
1.40001
1.40001
1.40001
1.40001
1.40001
1.40001
1.40001
1.40001
1.40001
1.4
1.4
1.4
1.40003
1.40072
1.41582
1.49169
1.68318
2.11704
2.55654
3.01671
3.17096
3.24329
3.28569
3.28438
3.3039
3.33079
3.35451
3.3591
3.36165
3.36751
3.37506
3.37886
3.37747
3.37214
3.36524
3.36208
3.36066
3.35833
3.35425
3.35063
3.3491
3.34922
3.34964
3.34953
3.34863
3.34792
3.34826
3.34941
3.34851
3.3453
3.33841
3.32775
3.31362
3.29627
3.27676
3.25332
3.23933
3.23601
3.23388
3.23201
3.23013
3.22823
3.22638
3.22424
3.22175
3.21971
3.21373
1.40001
1.40001
1.40001
1.40001
1.40001
1.40001
1.40001
1.40001
1.40001
1.40001
1.40001
1.40001
1.40001
1.40001
1.40001
1.40001
1.40001
1.40001
1.40001
1.40001
1.40001
1.40001
1.40001
1.4
1.4
1.4
1.40001
1.4
1.40019
1.40275
1.44376
1.56369
1.84219
2.29438
2.77475
3.18292
3.24406
3.27757
3.314
3.31536
3.32461
3.32446
3.32432
3.33826
3.36223
3.37016
3.36955
3.36929
3.37217
3.37825
3.38166
3.38151
3.37841
3.37396
3.36923
3.36414
3.35989
3.35656
3.3544
3.35323
3.35263
3.35114
3.34746
3.3402
3.32882
3.31393
3.29624
3.27612
3.25297
3.2401
3.23693
3.23496
3.23242
3.22755
3.22415
3.22343
3.22371
3.22283
3.22107
3.21671
1.40001
1.40001
1.40001
1.40001
1.40001
1.40001
1.40001
1.40001
1.40001
1.40001
1.40001
1.40001
1.40001
1.40001
1.40001
1.40001
1.40001
1.40001
1.40001
1.40001
1.40001
1.40001
1.40001
1.40001
1.40001
1.40001
1.40001
1.4
1.4
1.4
1.40005
1.40089
1.41024
1.49063
1.67943
2.10358
2.5681
3.01109
3.26447
3.30038
3.34048
3.3351
3.31543
3.32164
3.33177
3.34176
3.34605
3.35011
3.35717
3.36953
3.38279
3.38909
3.38935
3.3878
3.38429
3.37954
3.37605
3.37267
3.36999
3.36813
3.36614
3.36313
3.3577
3.34859
3.33611
3.32008
3.30033
3.27919
3.25999
3.25196
3.24854
3.24479
3.23863
3.23019
3.22247
3.21804
3.21565
3.21476
3.21568
3.2165
1.40001
1.40001
1.40001
1.40001
1.40001
1.40001
1.40001
1.40001
1.40001
1.40001
1.40001
1.40001
1.40001
1.40001
1.40001
1.40001
1.40001
1.40001
1.40001
1.40001
1.40001
1.40001
1.40001
1.40001
1.40001
1.40001
1.40001
1.40001
1.40001
1.4
1.4
1.40001
1.4
1.40033
1.4036
1.44421
1.60344
1.90803
2.378
2.83878
3.21881
3.31559
3.34058
3.38131
3.36411
3.35099
3.34984
3.34422
3.34364
3.35104
3.36338
3.373
3.37731
3.37806
3.37927
3.38118
3.37954
3.37673
3.37617
3.37582
3.37515
3.37326
3.36868
3.35984
3.34695
3.33062
3.30971
3.2866
3.26976
3.26439
3.26369
3.26164
3.25688
3.24568
3.22894
3.21653
3.21159
3.20817
3.20585
3.20627
1.40001
1.40001
1.40001
1.40001
1.40001
1.40001
1.40001
1.40001
1.40001
1.40001
1.40001
1.40001
1.40001
1.40001
1.40001
1.40001
1.40001
1.40001
1.40001
1.40001
1.40001
1.40001
1.40001
1.40001
1.40001
1.40001
1.40001
1.40001
1.40001
1.40001
1.40001
1.40001
1.4
1.4
1.4
1.40009
1.40206
1.41674
1.52774
1.78217
2.25771
2.71291
3.11296
3.30798
3.36595
3.38979
3.39741
3.38507
3.37361
3.3729
3.37091
3.3687
3.371
3.37237
3.37261
3.37312
3.37397
3.37633
3.37866
3.3792
3.37854
3.37664
3.3725
3.36426
3.35213
3.33602
3.31565
3.29145
3.27656
3.27217
3.27118
3.2685
3.26377
3.25704
3.2467
3.2323
3.21541
3.20554
3.20194
3.20036
1.40001
1.40001
1.40001
1.40001
1.40001
1.40001
1.40001
1.40001
1.40001
1.40001
1.40001
1.40001
1.40001
1.40001
1.40001
1.40001
1.40001
1.40001
1.40001
1.40001
1.40001
1.40001
1.40001
1.40001
1.40001
1.40001
1.40001
1.40001
1.40001
1.40001
1.40001
1.40001
1.40001
1.40001
1.4
1.4
1.40001
1.4
1.40097
1.40937
1.48536
1.74729
2.15427
2.61214
3.0125
3.29707
3.35895
3.37765
3.4073
3.41645
3.41656
3.40897
3.39905
3.39157
3.38659
3.38279
3.38138
3.38273
3.38584
3.38577
3.38409
3.38094
3.37622
3.36796
3.35606
3.33992
3.32109
3.29684
3.27565
3.26895
3.26786
3.26769
3.26393
3.25817
3.25305
3.24697
3.23633
3.22068
3.20603
3.20123
1.40001
1.40001
1.40001
1.40001
1.40001
1.40001
1.40001
1.40001
1.40001
1.40001
1.40001
1.40001
1.40001
1.40001
1.40001
1.40001
1.40001
1.40001
1.40001
1.40001
1.40001
1.40001
1.40001
1.40001
1.40001
1.40001
1.40001
1.40001
1.40001
1.40001
1.40001
1.40001
1.40001
1.40001
1.40001
1.4
1.4
1.4
1.40001
1.4
1.40051
1.40869
1.45218
1.68353
2.10431
2.62209
2.93942
3.20808
3.35222
3.39016
3.40636
3.41974
3.41961
3.41207
3.40768
3.40553
3.40372
3.40372
3.40509
3.40474
3.40132
3.39466
3.38628
3.37595
3.36253
3.34569
3.32804
3.30575
3.27956
3.26587
3.26135
3.25629
3.25211
3.25062
3.25028
3.24978
3.2477
3.24305
3.23059
3.21251
1.40001
1.40001
1.40001
1.40001
1.40001
1.40001
1.40001
1.40001
1.40001
1.40001
1.40001
1.40001
1.40001
1.40001
1.40001
1.40001
1.40001
1.40001
1.40001
1.40001
1.40001
1.40001
1.40001
1.40001
1.40001
1.40001
1.40001
1.40001
1.40001
1.40001
1.40001
1.40001
1.40001
1.40001
1.40001
1.40001
1.40001
1.40001
1.40001
1.4
1.4
1.4
1.40019
1.40722
1.4464
1.64319
2.09064
2.66017
2.98549
3.17181
3.28972
3.36382
3.37905
3.37744
3.38493
3.40089
3.4059
3.4073
3.40977
3.41227
3.41154
3.40517
3.39487
3.38352
3.37067
3.35666
3.34165
3.32278
3.30021
3.27923
3.26249
3.25076
3.24253
3.23821
3.23697
3.23912
3.24547
3.24871
3.24704
3.23598
1.40001
1.40001
1.40001
1.40001
1.40001
1.40001
1.40001
1.40001
1.40001
1.40001
1.40001
1.40001
1.40001
1.40001
1.40001
1.40001
1.40001
1.40001
1.40001
1.40001
1.40001
1.40001
1.40001
1.40001
1.40001
1.40001
1.40001
1.40001
1.40001
1.40001
1.40001
1.40001
1.40001
1.40001
1.40001
1.40001
1.40001
1.40001
1.40001
1.40001
1.40001
1.4
1.4
1.4
1.40016
1.40566
1.45671
1.63501
2.0845
2.65729
3.13126
3.23992
3.30725
3.31728
3.33731
3.36332
3.37089
3.37382
3.38115
3.39009
3.39453
3.39438
3.3903
3.38069
3.36939
3.35821
3.34563
3.33
3.31404
3.30165
3.28773
3.26866
3.24762
3.23548
3.23177
3.22936
3.22979
3.24302
3.2579
3.25543
1.40001
1.40001
1.40001
1.40001
1.40001
1.40001
1.40001
1.40001
1.40001
1.40001
1.40001
1.40001
1.40001
1.40001
1.40001
1.40001
1.40001
1.40001
1.40001
1.40001
1.40001
1.40001
1.40001
1.40001
1.40001
1.40001
1.40001
1.40001
1.40001
1.40001
1.40001
1.40001
1.40001
1.40001
1.40001
1.40001
1.40001
1.40001
1.40001
1.40001
1.40001
1.40001
1.40001
1.4
1.4
1.4
1.40029
1.4048
1.46589
1.66053
2.12869
2.70166
3.15469
3.32631
3.35727
3.37045
3.36583
3.36751
3.37969
3.38325
3.38121
3.38001
3.37688
3.36834
3.35557
3.34016
3.32686
3.31756
3.31183
3.3056
3.29772
3.28847
3.27556
3.25468
3.23511
3.22851
3.22797
3.23212
3.24805
3.25965
1.40001
1.40001
1.40001
1.40001
1.40001
1.40001
1.40001
1.40001
1.40001
1.40001
1.40001
1.40001
1.40001
1.40001
1.40001
1.40001
1.40001
1.40001
1.40001
1.40001
1.40001
1.40001
1.40001
1.40001
1.40001
1.40001
1.40001
1.40001
1.40001
1.40001
1.40001
1.40001
1.40001
1.40001
1.40001
1.40001
1.40001
1.40001
1.40001
1.40001
1.40001
1.40001
1.40001
1.40001
1.4
1.4
1.4
1.4
1.4005
1.40613
1.47844
1.73034
2.23329
2.78732
3.18971
3.35703
3.40247
3.41735
3.4228
3.42339
3.4119
3.39845
3.39081
3.37941
3.3612
3.3402
3.31623
3.29252
3.28076
3.27874
3.28338
3.28935
3.28967
3.28532
3.27141
3.24713
3.23187
3.22902
3.23188
3.24904
1.40001
1.40001
1.40001
1.40001
1.40001
1.40001
1.40001
1.40001
1.40001
1.40001
1.40001
1.40001
1.40001
1.40001
1.40001
1.40001
1.40001
1.40001
1.40001
1.40001
1.40001
1.40001
1.40001
1.40001
1.40001
1.40001
1.40001
1.40001
1.40001
1.40001
1.40001
1.40001
1.40001
1.40001
1.40001
1.40001
1.40001
1.40001
1.40001
1.40001
1.40001
1.40001
1.40001
1.40001
1.40001
1.40001
1.4
1.4
1.4
1.40001
1.40086
1.41075
1.50852
1.86355
2.41397
2.87791
3.19334
3.36238
3.40157
3.4164
3.42123
3.42056
3.41904
3.41307
3.4003
3.37722
3.33943
3.29683
3.26751
3.25559
3.25165
3.25821
3.27808
3.29202
3.29301
3.28164
3.25616
3.23519
3.23025
3.23717
1.40001
1.40001
1.40001
1.40001
1.40001
1.40001
1.40001
1.40001
1.40001
1.40001
1.40001
1.40001
1.40001
1.40001
1.40001
1.40001
1.40001
1.40001
1.40001
1.40001
1.40001
1.40001
1.40001
1.40001
1.40001
1.40001
1.40001
1.40001
1.40001
1.40001
1.40001
1.40001
1.40001
1.40001
1.40001
1.40001
1.40001
1.40001
1.40001
1.40001
1.40001
1.40001
1.40001
1.40001
1.40001
1.40001
1.40001
1.40001
1.40001
1.4
1.4
1.40002
1.40175
1.42412
1.56457
2.00334
2.63651
3.04088
3.20514
3.30059
3.35077
3.36763
3.38787
3.4069
3.4113
3.40317
3.38212
3.35113
3.30377
3.2558
3.23829
3.23673
3.24186
3.26635
3.28724
3.28795
3.28101
3.26181
3.23946
3.23606
1.40001
1.40001
1.40001
1.40001
1.40001
1.40001
1.40001
1.40001
1.40001
1.40001
1.40001
1.40001
1.40001
1.40001
1.40001
1.40001
1.40001
1.40001
1.40001
1.40001
1.40001
1.40001
1.40001
1.40001
1.40001
1.40001
1.40001
1.40001
1.40001
1.40001
1.40001
1.40001
1.40001
1.40001
1.40001
1.40001
1.40001
1.40001
1.40001
1.40001
1.40001
1.40001
1.40001
1.40001
1.40001
1.40001
1.40001
1.40001
1.40001
1.40001
1.4
1.4
1.4
1.40009
1.40401
1.45031
1.67187
2.20441
2.88114
3.21951
3.27239
3.30106
3.30764
3.31638
3.33576
3.36449
3.38255
3.37563
3.354
3.31311
3.26089
3.23136
3.2281
3.23111
3.25246
3.28311
3.2909
3.28608
3.2684
3.247
1.40001
1.40001
1.40001
1.40001
1.40001
1.40001
1.40001
1.40001
1.40001
1.40001
1.40001
1.40001
1.40001
1.40001
1.40001
1.40001
1.40001
1.40001
1.40001
1.40001
1.40001
1.40001
1.40001
1.40001
1.40001
1.40001
1.40001
1.40001
1.40001
1.40001
1.40001
1.40001
1.40001
1.40001
1.40001
1.40001
1.40001
1.40001
1.40001
1.40001
1.40001
1.40001
1.40001
1.40001
1.40001
1.40001
1.40001
1.40001
1.40001
1.40001
1.40001
1.40001
1.4
1.4
1.40001
1.40041
1.41083
1.50832
1.86639
2.48064
3.06464
3.3529
3.35565
3.30166
3.27881
3.28111
3.30451
3.34545
3.35464
3.34331
3.31834
3.27413
3.23482
3.22624
3.22988
3.25028
3.27841
3.28699
3.28457
3.26836
1.40001
1.40001
1.40001
1.40001
1.40001
1.40001
1.40001
1.40001
1.40001
1.40001
1.40001
1.40001
1.40001
1.40001
1.40001
1.40001
1.40001
1.40001
1.40001
1.40001
1.40001
1.40001
1.40001
1.40001
1.40001
1.40001
1.40001
1.40001
1.40001
1.40001
1.40001
1.40001
1.40001
1.40001
1.40001
1.40001
1.40001
1.40001
1.40001
1.40001
1.40001
1.40001
1.40001
1.40001
1.40001
1.40001
1.40001
1.40001
1.40001
1.40001
1.40001
1.40001
1.40001
1.4
1.4
1.4
1.40004
1.40183
1.43395
1.62453
2.15491
2.80728
3.2526
3.3542
3.3541
3.28548
3.252
3.2539
3.29068
3.33158
3.33199
3.31906
3.28838
3.24641
3.22864
3.22864
3.23979
3.26536
3.28125
3.27781
1.40001
1.40001
1.40001
1.40001
1.40001
1.40001
1.40001
1.40001
1.40001
1.40001
1.40001
1.40001
1.40001
1.40001
1.40001
1.40001
1.40001
1.40001
1.40001
1.40001
1.40001
1.40001
1.40001
1.40001
1.40001
1.40001
1.40001
1.40001
1.40001
1.40001
1.40001
1.40001
1.40001
1.40001
1.40001
1.40001
1.40001
1.40001
1.40001
1.40001
1.40001
1.40001
1.40001
1.40001
1.40001
1.40001
1.40001
1.40001
1.40001
1.40001
1.40001
1.40001
1.40001
1.40001
1.40001
1.4
1.4
1.4
1.40028
1.40771
1.50847
1.87239
2.50359
3.087
3.33113
3.35016
3.3057
3.23557
3.22805
3.25279
3.30953
3.32619
3.31804
3.29648
3.25963
3.23329
3.22933
3.23574
3.25445
3.27255
1.40001
1.40001
1.40001
1.40001
1.40001
1.40001
1.40001
1.40001
1.40001
1.40001
1.40001
1.40001
1.40001
1.40001