/*--------------------------------*- C++ -*----------------------------------*\
| =========                 |                                                 |
| \\      /  F ield         | OpenFOAM: The Open Source CFD Toolbox           |
|  \\    /   O peration     | Version:  2206                                  |
|   \\  /    A nd           | Website:  www.openfoam.com                      |
|    \\/     M anipulation  |                                                 |
\*---------------------------------------------------------------------------*/
FoamFile
{
    version     2.0;
    format      ascii;
    arch        "LSB;label=32;scalar=64";
    class       volVectorField;
    location    "0.04";
    object      U;
}
// * * * * * * * * * * * * * * * * * * * * * * * * * * * * * * * * * * * * * //

dimensions      [0 1 -1 0 0 0 0];

internalField   nonuniform List<vector> 
75
(
(6.27273 -3.47352e-15 0)
(6.27273 -3.45851e-15 0)
(6.27273 4.88793e-15 0)
(6.27273 2.0864e-14 0)
(6.27273 1.11216e-13 0)
(6.27273 -1.00017e-17 0)
(6.27273 -3.21014e-15 0)
(6.27273 -3.16596e-15 0)
(6.27273 -2.41917e-15 0)
(6.27273 3.48772e-14 0)
(6.27273 3.02802e-15 0)
(6.27273 2.72922e-15 0)
(6.27273 -5.28591e-15 0)
(6.27273 -2.96047e-14 0)
(6.27273 -1.70046e-13 0)
(6.27273 -3.16971e-15 0)
(6.27273 -6.85535e-16 0)
(6.27273 1.57527e-15 0)
(6.27273 1.49868e-14 0)
(6.27273 5.10459e-14 0)
(6.27273 -3.5952e-15 0)
(6.27273 -3.54395e-15 0)
(6.27273 -1.29481e-15 0)
(6.27273 1.12444e-14 0)
(6.27273 8.02364e-14 0)
(6.24819 0.00994002 0)
(6.20645 0.0474304 0)
(6.15822 0.111387 0)
(6.10372 0.20669 0)
(6.04617 0.324115 0)
(5.99242 0.467894 0)
(5.96237 0.599796 0)
(5.95453 0.725463 0)
(5.95973 0.822593 0)
(5.97966 0.959324 0)
(6.27273 4.07424e-06 0)
(6.27273 1.27736e-05 0)
(6.27578 -0.00179021 0)
(6.27082 -0.00181676 0)
(6.25252 0.0342194 0)
(6.1979 0.176966 0)
(6.14146 0.362152 0)
(6.0696 0.633669 0)
(6.04135 0.821005 0)
(5.97331 1.21203 0)
(6.27273 -1.23591e-09 0)
(6.27273 2.7848e-07 0)
(6.27273 -3.38973e-06 0)
(6.27275 1.34636e-05 0)
(6.27274 -0.000158123 0)
(6.27268 0.000149116 0)
(6.27304 -0.00173949 0)
(6.27089 0.00687557 0)
(6.27121 0.00688762 0)
(6.2609 0.0834479 0)
(6.27273 6.14274e-13 0)
(6.27273 6.08096e-09 0)
(6.27273 3.47513e-08 0)
(6.27273 1.90357e-07 0)
(6.27273 -6.52604e-06 0)
(6.27273 -3.18401e-06 0)
(6.27274 -8.37227e-05 0)
(6.27273 -3.41825e-05 0)
(6.27273 -7.37688e-05 0)
(6.27271 0.000289745 0)
(6.27273 3.16415e-13 0)
(6.27273 -4.0139e-11 0)
(6.27273 4.0897e-09 0)
(6.27273 2.41116e-09 0)
(6.27273 3.05239e-08 0)
(6.27273 -2.20571e-07 0)
(6.27273 1.57879e-07 0)
(6.27273 -1.97923e-06 0)
(6.27273 -6.82802e-06 0)
(6.27273 -3.44178e-06 0)
)
;

boundaryField
{
    inlet
    {
        type            fixedValue;
        value           uniform (6.27273 0 0);
    }
    outlet
    {
        type            zeroGradient;
    }
    bottom
    {
        type            symmetryPlane;
    }
    top
    {
        type            symmetryPlane;
    }
    obstacle
    {
        type            slip;
    }
    defaultFaces
    {
        type            empty;
    }
}


// ************************************************************************* //
