/*--------------------------------*- C++ -*----------------------------------*\
| =========                 |                                                 |
| \\      /  F ield         | OpenFOAM: The Open Source CFD Toolbox           |
|  \\    /   O peration     | Version:  2206                                  |
|   \\  /    A nd           | Website:  www.openfoam.com                      |
|    \\/     M anipulation  |                                                 |
\*---------------------------------------------------------------------------*/
FoamFile
{
    version     2.0;
    format      ascii;
    arch        "LSB;label=32;scalar=64";
    class       volScalarField;
    location    "0.08";
    object      T;
}
// * * * * * * * * * * * * * * * * * * * * * * * * * * * * * * * * * * * * * //

dimensions      [0 0 0 1 0 0 0];

internalField   nonuniform List<scalar> 
75
(
1
1
1
1
1
1
1
1
1
1
1
1
1
1
1
1
1
1
1
1
1
1
1
1
1
1.07503
1.17776
1.28711
1.39599
1.50238
1.57444
1.6172
1.61855
1.59233
1.55214
1.00151
1.01128
1.03985
1.09667
1.1754
1.2671
1.34044
1.39107
1.41045
1.45986
0.999993
1.00005
1.00006
1.00158
1.01065
1.04802
1.13236
1.25442
1.40021
1.48358
1
1
0.999999
1
0.999948
1.00047
1.00701
1.04634
1.17417
1.39173
1
1
0.999999
0.999998
0.999985
0.999987
0.999946
1.00068
1.01191
1.18833
)
;

boundaryField
{
    inlet
    {
        type            fixedValue;
        value           uniform 1;
    }
    outlet
    {
        type            zeroGradient;
    }
    bottom
    {
        type            symmetryPlane;
    }
    top
    {
        type            symmetryPlane;
    }
    obstacle
    {
        type            zeroGradient;
    }
    defaultFaces
    {
        type            empty;
    }
}


// ************************************************************************* //
