/*--------------------------------*- C++ -*----------------------------------*\
| =========                 |                                                 |
| \\      /  F ield         | OpenFOAM: The Open Source CFD Toolbox           |
|  \\    /   O peration     | Version:  2206                                  |
|   \\  /    A nd           | Website:  www.openfoam.com                      |
|    \\/     M anipulation  |                                                 |
\*---------------------------------------------------------------------------*/
FoamFile
{
    version     2.0;
    format      ascii;
    arch        "LSB;label=32;scalar=64";
    class       volVectorField;
    location    "0.12";
    object      U;
}
// * * * * * * * * * * * * * * * * * * * * * * * * * * * * * * * * * * * * * //

dimensions      [0 1 -1 0 0 0 0];

internalField   nonuniform List<vector> 
4800
(
(5.82828 -1.49026e-15 0)
(5.82828 6.99454e-15 0)
(5.82828 9.39162e-15 0)
(5.82828 2.33674e-14 0)
(5.82828 3.18422e-14 0)
(5.82828 1.54527e-14 0)
(5.82828 1.51893e-14 0)
(5.82828 9.93505e-15 0)
(5.82828 3.16155e-14 0)
(5.82828 4.62347e-14 0)
(5.82828 3.86567e-14 0)
(5.82828 2.3124e-14 0)
(5.82828 -1.47826e-14 0)
(5.82828 -1.59861e-14 0)
(5.82828 4.07737e-14 0)
(5.82828 1.09552e-13 0)
(5.82828 1.17887e-13 0)
(5.82828 7.69199e-14 0)
(5.82828 3.6793e-14 0)
(5.82828 3.75265e-14 0)
(5.82828 1.72663e-14 0)
(5.82828 -2.21838e-14 0)
(5.82828 -6.84585e-14 0)
(5.82828 -4.86817e-14 0)
(5.82828 -3.72731e-14 0)
(5.82828 -5.57863e-14 0)
(5.82828 -7.55697e-14 0)
(5.82828 -1.23981e-13 0)
(5.82828 -1.3639e-13 0)
(5.82828 -1.94974e-13 0)
(5.82828 -1.88293e-13 0)
(5.82828 5.72766e-15 0)
(5.82828 7.91403e-14 0)
(5.82828 8.5048e-14 0)
(5.82828 2.56978e-14 0)
(5.82828 -8.62016e-14 0)
(5.82828 -9.84703e-14 0)
(5.82828 -9.0909e-14 0)
(5.82828 -7.38261e-14 0)
(5.82828 8.2881e-15 0)
(5.82828 1.67362e-15 0)
(5.82828 2.57544e-14 0)
(5.82828 4.84984e-14 0)
(5.82828 9.28194e-14 0)
(5.82828 8.92454e-14 0)
(5.82828 3.79866e-14 0)
(5.82828 1.05585e-14 0)
(5.82828 -3.63463e-14 0)
(5.82828 -2.85416e-14 0)
(5.82828 1.18354e-14 0)
(5.82828 1.77231e-14 0)
(5.82828 3.56162e-14 0)
(5.82828 2.70113e-14 0)
(5.82828 3.08453e-14 0)
(5.82828 4.11671e-14 0)
(5.82828 7.28826e-14 0)
(5.82828 8.2731e-14 0)
(5.82828 7.45595e-14 0)
(5.82828 1.00357e-13 0)
(5.82828 9.14825e-14 0)
(5.82828 5.39293e-14 0)
(5.82828 -1.5516e-14 0)
(5.82828 -6.09339e-14 0)
(5.82828 -1.16997e-13 0)
(5.82828 -1.45889e-13 0)
(5.82828 -1.3474e-13 0)
(5.82828 -7.21758e-14 0)
(5.82828 -4.79883e-14 0)
(5.82828 -6.42778e-14 0)
(5.82828 -1.3636e-13 0)
(5.82828 -1.34787e-13 0)
(5.82828 -9.53465e-14 0)
(5.82828 -5.10355e-14 0)
(5.82828 -4.23406e-15 0)
(5.82828 -6.31476e-14 0)
(5.82828 -8.16741e-14 0)
(5.82828 -1.01344e-13 0)
(5.82828 -8.65783e-14 0)
(5.82828 4.45644e-14 0)
(5.82828 9.53096e-14 0)
(5.82828 -3.27056e-15 0)
(5.82828 -1.27322e-14 0)
(5.82828 -8.85153e-15 0)
(5.82828 -3.28723e-15 0)
(5.82828 -3.90401e-15 0)
(5.82828 1.81565e-14 0)
(5.82828 -1.62961e-14 0)
(5.82828 -5.82401e-14 0)
(5.82828 -4.85417e-14 0)
(5.82828 3.89334e-14 0)
(5.82828 9.79069e-14 0)
(5.82828 7.85536e-14 0)
(5.82828 1.21764e-13 0)
(5.82828 1.07145e-13 0)
(5.82828 5.99504e-14 0)
(5.82828 4.36742e-16 0)
(5.82828 2.36941e-14 0)
(5.82828 5.82967e-14 0)
(5.82828 8.36211e-14 0)
(5.82828 1.71296e-14 0)
(5.82828 -3.73931e-14 0)
(5.82828 -1.03418e-14 0)
(5.82828 -1.83598e-14 0)
(5.82828 -7.59398e-14 0)
(5.82828 -7.19824e-14 0)
(5.82828 -5.68265e-14 0)
(5.82828 -2.38308e-14 0)
(5.82828 3.39125e-14 0)
(5.82828 7.40428e-14 0)
(5.82828 7.16157e-14 0)
(5.82828 4.69014e-14 0)
(5.82828 3.99869e-14 0)
(5.82828 9.80169e-16 0)
(5.82828 -1.59227e-14 0)
(5.82828 -1.21354e-14 0)
(5.82828 -4.95686e-14 0)
(5.82828 -8.24476e-15 0)
(5.82828 8.24142e-14 0)
(5.82828 8.52647e-14 0)
(5.82828 1.52275e-13 0)
(5.82828 7.748e-15 0)
(5.82828 -1.29556e-14 0)
(5.82828 -2.03702e-14 0)
(5.82828 -1.85399e-14 0)
(5.82828 -1.41158e-14 0)
(5.82828 -5.9977e-15 0)
(5.82828 -4.07737e-15 0)
(5.82828 3.4546e-14 0)
(5.82828 3.15354e-14 0)
(5.82828 2.82649e-14 0)
(5.82828 4.53178e-14 0)
(5.82828 3.56262e-14 0)
(5.82828 2.56778e-14 0)
(5.82828 -1.83965e-14 0)
(5.82828 6.40111e-16 0)
(5.82828 -6.08772e-15 0)
(5.82828 -1.85965e-14 0)
(5.82828 -4.50278e-14 0)
(5.82828 -5.25891e-14 0)
(5.82828 -2.97518e-14 0)
(5.82828 8.22775e-14 0)
(5.82828 9.84803e-14 0)
(5.82828 1.06842e-13 0)
(5.82828 8.76818e-14 0)
(5.82828 8.96655e-14 0)
(5.82828 5.33592e-14 0)
(5.82828 2.90383e-15 0)
(5.82828 -8.75485e-15 0)
(5.82828 3.84733e-15 0)
(5.82828 -1.14286e-14 0)
(5.82828 -4.67681e-14 0)
(5.82828 -3.73665e-14 0)
(5.82828 -6.86352e-14 0)
(5.82828 -1.00841e-13 0)
(5.82828 -9.8487e-14 0)
(5.82828 -6.84785e-14 0)
(5.82828 2.65246e-14 0)
(5.82828 7.40928e-14 0)
(5.82828 7.06722e-14 0)
(5.82828 -2.75799e-14 0)
(5.82828 1.1852e-14 0)
(5.82828 1.15553e-14 0)
(5.82828 1.93533e-14 0)
(5.82828 -3.04719e-15 0)
(5.82828 -1.03585e-14 0)
(5.82828 -2.32007e-14 0)
(5.82828 -2.50043e-15 0)
(5.82828 6.73983e-14 0)
(5.82828 8.41479e-14 0)
(5.82828 7.37961e-14 0)
(5.82828 1.17154e-14 0)
(5.82828 9.87837e-15 0)
(5.82828 5.62764e-15 0)
(5.82828 7.53463e-15 0)
(5.82828 4.81083e-15 0)
(5.82828 9.79169e-15 0)
(5.82828 -7.37661e-14 0)
(5.82828 -1.1305e-13 0)
(5.82828 -1.13126e-13 0)
(5.82828 2.43475e-14 0)
(5.82828 2.17584e-13 0)
(5.82828 2.07876e-13 0)
(5.82828 1.86569e-13 0)
(5.82828 1.08342e-13 0)
(5.82828 1.1343e-13 0)
(5.82828 1.27669e-13 0)
(5.82828 1.26595e-13 0)
(5.82828 7.40094e-14 0)
(5.82828 4.50411e-14 0)
(5.82828 2.59545e-14 0)
(5.82828 -2.73381e-15 0)
(5.82828 1.09886e-14 0)
(5.82828 4.56245e-14 0)
(5.82828 4.63647e-14 0)
(5.82828 5.2039e-14 0)
(5.82828 1.16814e-13 0)
(5.82828 2.21838e-13 0)
(5.82828 1.79894e-13 0)
(5.82828 1.82291e-13 0)
(5.82828 1.81013e-13 0)
(5.82828 -1.7283e-14 0)
(5.82828 -1.30856e-14 0)
(5.82828 -2.89017e-14 0)
(5.82828 -5.73532e-14 0)
(5.82828 -5.55163e-14 0)
(5.82828 -4.23073e-14 0)
(5.82828 -5.59097e-15 0)
(5.82828 8.36144e-15 0)
(5.82828 1.3589e-14 0)
(5.82828 3.0882e-14 0)
(5.82828 3.0682e-14 0)
(5.82828 3.28623e-14 0)
(5.82828 3.73531e-14 0)
(5.82828 5.45628e-14 0)
(5.82828 4.07737e-15 0)
(5.82828 -2.57444e-14 0)
(5.82828 -3.61963e-14 0)
(5.82828 -1.46792e-14 0)
(5.82828 3.72931e-14 0)
(5.82828 1.11403e-13 0)
(5.82828 1.00657e-13 0)
(5.82828 9.32994e-14 0)
(5.82828 5.26158e-14 0)
(5.82828 5.01087e-15 0)
(5.82828 -2.32373e-15 0)
(5.82828 1.09286e-14 0)
(5.82828 2.19538e-14 0)
(5.82828 5.20757e-15 0)
(5.82828 -2.1127e-14 0)
(5.82828 -4.51078e-15 0)
(5.82828 6.26442e-15 0)
(5.82828 -5.28091e-14 0)
(5.82828 2.69713e-15 0)
(5.82828 6.45245e-14 0)
(5.82828 7.41595e-14 0)
(5.82828 8.34211e-14 0)
(5.82828 6.53046e-14 0)
(5.82828 8.67116e-14 0)
(5.82828 1.27312e-13 0)
(5.82828 2.14054e-13 0)
(5.82828 -5.55763e-15 0)
(5.82828 -1.5336e-15 0)
(5.82828 2.65713e-15 0)
(5.82828 2.42375e-15 0)
(5.82828 -3.65797e-14 0)
(5.82828 -4.35909e-14 0)
(5.82828 -2.14704e-15 0)
(5.82828 -4.0527e-14 0)
(5.82828 -1.24465e-13 0)
(5.82828 -1.31939e-13 0)
(5.82828 -1.13813e-13 0)
(5.82828 -1.29919e-13 0)
(5.82828 -8.79885e-14 0)
(5.82828 -5.87268e-14 0)
(5.82828 -2.2984e-14 0)
(5.82828 -4.69414e-15 0)
(5.82828 4.52311e-14 0)
(5.82828 2.69747e-14 0)
(5.82828 3.48393e-14 0)
(5.82828 5.804e-14 0)
(5.82828 -3.45993e-14 0)
(5.82828 -4.94419e-14 0)
(5.82828 -9.33061e-14 0)
(5.82828 -8.84686e-14 0)
(5.82828 -1.03701e-13 0)
(5.82828 -8.7075e-14 0)
(5.82828 -8.75451e-14 0)
(5.82828 -7.34994e-14 0)
(5.82828 -6.92986e-14 0)
(5.82828 -9.18659e-14 0)
(5.82828 -4.17005e-14 0)
(5.82828 1.3249e-14 0)
(5.82828 3.61796e-14 0)
(5.82828 1.05335e-13 0)
(5.82828 1.36434e-13 0)
(5.82828 1.14383e-13 0)
(5.82828 8.60315e-14 0)
(5.82828 5.89368e-14 0)
(5.82828 4.47244e-14 0)
(5.82828 6.36679e-14 0)
(5.82828 3.57728e-15 0)
(5.82828 1.81965e-14 0)
(5.82828 2.22705e-14 0)
(5.82828 2.23672e-14 0)
(5.82828 1.48592e-14 0)
(5.82828 1.61395e-14 0)
(5.82828 -1.63028e-15 0)
(5.82828 -2.98952e-14 0)
(5.82828 -7.20158e-14 0)
(5.82828 -1.91786e-13 0)
(5.82828 -2.03835e-13 0)
(5.82828 -2.38901e-13 0)
(5.82828 -1.45332e-13 0)
(5.82828 -5.75766e-14 0)
(5.82828 -3.16688e-14 0)
(5.82828 1.64428e-14 0)
(5.82828 5.52995e-14 0)
(5.82828 5.69398e-14 0)
(5.82828 4.8245e-14 0)
(5.82828 1.75564e-14 0)
(5.82828 2.15237e-14 0)
(5.82828 3.83099e-14 0)
(5.82828 4.40743e-14 0)
(5.82828 2.50243e-14 0)
(5.82828 1.97267e-14 0)
(5.82828 3.06086e-14 0)
(5.82828 1.44225e-14 0)
(5.82828 1.7203e-14 0)
(5.82828 1.41458e-14 0)
(5.82828 7.3126e-14 0)
(5.82828 1.28982e-13 0)
(5.82828 2.16344e-13 0)
(5.82828 2.22195e-13 0)
(5.82828 1.42891e-13 0)
(5.82828 4.12838e-14 0)
(5.82828 1.92167e-14 0)
(5.82828 5.05287e-14 0)
(5.82828 6.70816e-14 0)
(5.82828 1.06885e-13 0)
(5.82828 1.23051e-13 0)
(5.82828 1.68029e-15 0)
(5.82828 5.3776e-15 0)
(5.82828 1.69496e-14 0)
(5.82828 3.77899e-14 0)
(5.82828 6.55347e-14 0)
(5.82828 5.36559e-14 0)
(5.82828 1.74497e-14 0)
(5.82828 1.24755e-14 0)
(5.82828 1.20087e-14 0)
(5.82828 -2.35041e-15 0)
(5.82828 -2.39441e-14 0)
(5.82828 -1.14887e-14 0)
(5.82828 -4.25473e-14 0)
(5.82828 -4.55312e-14 0)
(5.82828 -4.17672e-14 0)
(5.82828 4.96452e-14 0)
(5.82828 7.19158e-14 0)
(5.82828 6.93053e-14 0)
(5.82828 -2.21372e-15 0)
(5.82828 -4.17272e-14 0)
(5.82828 -6.30742e-14 0)
(5.82828 -5.49262e-14 0)
(5.82828 -3.57962e-14 0)
(5.82828 8.44146e-15 0)
(5.82828 -3.21355e-14 0)
(5.82828 -1.02474e-13 0)
(5.82828 -5.14856e-14 0)
(5.82828 6.89119e-14 0)
(5.82828 1.23478e-13 0)
(5.82828 1.68896e-13 0)
(5.82828 1.56694e-13 0)
(5.82828 1.10669e-13 0)
(5.82828 9.42429e-14 0)
(5.82828 3.04453e-14 0)
(5.82828 9.91505e-15 0)
(5.82828 3.20455e-14 0)
(5.82828 1.07619e-14 0)
(5.82828 7.07556e-14 0)
(5.82828 8.22809e-14 0)
(5.82828 7.9183e-14 0)
(5.82828 1.47692e-15 0)
(5.82828 -1.07619e-14 0)
(5.82828 -9.59832e-15 0)
(5.82828 -1.29989e-14 0)
(5.82828 -1.1802e-15 0)
(5.82828 -1.32356e-15 0)
(5.82828 -3.05786e-14 0)
(5.82828 -2.59011e-14 0)
(5.82828 4.50011e-14 0)
(5.82828 6.68882e-14 0)
(5.82828 4.04503e-14 0)
(5.82828 -3.94735e-14 0)
(5.82828 -6.30042e-14 0)
(5.82828 -7.47929e-14 0)
(5.82828 -7.04022e-14 0)
(5.82828 -7.81068e-14 0)
(5.82828 -1.25002e-13 0)
(5.82828 -1.45035e-13 0)
(5.82828 -1.36737e-13 0)
(5.82828 -1.64242e-13 0)
(5.82828 -1.63732e-13 0)
(5.82828 -1.97004e-13 0)
(5.82828 -1.80731e-13 0)
(5.82828 -1.5693e-13 0)
(5.82828 -1.55397e-13 0)
(5.82828 -1.47926e-13 0)
(5.82828 -4.67914e-14 0)
(5.82828 -1.64028e-14 0)
(5.82828 3.87167e-14 0)
(5.82828 1.956e-14 0)
(5.82828 -2.22972e-14 0)
(5.82828 -3.74865e-14 0)
(5.82828 -7.71667e-14 0)
(5.82828 -1.30933e-13 0)
(5.82828 -1.27829e-13 0)
(5.82828 -1.53877e-13 0)
(5.82828 -1.60761e-13 0)
(5.82828 -6.68749e-14 0)
(5.82828 -6.30042e-14 0)
(5.82828 -2.39528e-14 0)
(5.82828 -1.29356e-15 0)
(5.82828 -1.78464e-14 0)
(5.82828 -4.58079e-14 0)
(5.82828 -3.51994e-14 0)
(5.82828 -2.38374e-14 0)
(5.82828 -4.87418e-15 0)
(5.82828 -8.17141e-15 0)
(5.82828 -1.52826e-14 0)
(5.82828 -1.02551e-14 0)
(5.82828 1.69163e-14 0)
(5.82828 -6.76784e-16 0)
(5.82828 -6.85052e-14 0)
(5.82828 -4.15638e-14 0)
(5.82828 -3.71364e-14 0)
(5.82828 -2.43075e-14 0)
(5.82828 -6.61748e-14 0)
(5.82828 -1.08099e-13 0)
(5.82828 -1.14486e-13 0)
(5.82828 -9.48597e-14 0)
(5.82828 -7.1489e-14 0)
(5.82828 -1.05835e-13 0)
(5.82828 -1.34053e-13 0)
(5.82828 -1.20477e-13 0)
(5.82828 -4.39676e-14 0)
(5.82828 -1.94234e-14 0)
(5.82828 5.77633e-14 0)
(5.82828 8.5168e-14 0)
(5.82828 -4.35709e-14 0)
(5.82828 -1.65325e-13 0)
(5.82828 -1.76434e-13 0)
(5.82828 -1.28479e-13 0)
(5.82828 -4.96652e-14 0)
(5.82828 -3.58062e-14 0)
(5.82828 -6.44045e-14 0)
(5.82828 -9.93572e-14 0)
(5.82828 -1.60631e-13 0)
(5.82828 -1.00824e-13 0)
(5.82828 -6.30542e-14 0)
(5.82828 -5.9647e-14 0)
(5.82828 -4.54095e-14 0)
(5.82828 5.811e-15 0)
(5.82828 2.59411e-14 0)
(5.82828 3.68964e-14 0)
(5.82828 2.98018e-14 0)
(5.82828 7.10789e-15 0)
(5.82828 8.12807e-15 0)
(5.82828 -7.21125e-15 0)
(5.82828 -8.12807e-15 0)
(5.82828 -1.67196e-14 0)
(5.82828 -2.94051e-15 0)
(5.82828 -9.52164e-15 0)
(5.82828 -8.8882e-15 0)
(5.82828 -3.23489e-14 0)
(5.82828 -3.11821e-14 0)
(5.82828 2.55311e-14 0)
(5.82828 4.31241e-14 0)
(5.82828 4.27674e-14 0)
(5.82828 4.29107e-14 0)
(5.82828 4.52778e-14 0)
(5.82828 4.31274e-14 0)
(5.82828 1.92133e-14 0)
(5.82828 4.0407e-15 0)
(5.82828 -2.61812e-14 0)
(5.82828 -2.92317e-14 0)
(5.82828 5.86768e-16 0)
(5.82828 4.69148e-14 0)
(5.82828 5.90935e-14 0)
(5.82828 3.52761e-14 0)
(5.82828 -6.13773e-15 0)
(5.82828 -2.22472e-14 0)
(5.82828 1.60061e-14 0)
(5.82828 3.21022e-14 0)
(5.82828 1.86499e-14 0)
(5.82828 3.18488e-14 0)
(5.82828 6.19207e-14 0)
(5.82828 1.00387e-13 0)
(5.82828 1.48736e-13 0)
(5.82828 9.74635e-14 0)
(5.82828 6.17907e-14 0)
(5.82828 -2.93125e-14 0)
(5.82828 2.74714e-15 0)
(5.82828 8.23476e-16 0)
(5.82828 2.05369e-15 0)
(5.82828 -1.66362e-15 0)
(5.82828 -4.05403e-14 0)
(5.82828 -1.09582e-13 0)
(5.82828 -1.11793e-13 0)
(5.82828 -8.08273e-14 0)
(5.82828 -5.09155e-14 0)
(5.82828 -8.00538e-14 0)
(5.82828 -5.32125e-14 0)
(5.82828 -1.69696e-14 0)
(5.82828 -1.69763e-14 0)
(5.82828 -2.16337e-14 0)
(5.82828 -7.22491e-14 0)
(5.82828 -4.15472e-14 0)
(5.82828 -3.15688e-14 0)
(5.82828 1.17954e-14 0)
(5.82828 2.35774e-14 0)
(5.82828 -5.5743e-15 0)
(5.82828 -1.13453e-14 0)
(5.82828 3.95068e-14 0)
(5.82828 4.20106e-14 0)
(5.82828 2.74414e-14 0)
(5.82828 1.84565e-14 0)
(5.82828 -9.675e-15 0)
(5.82828 -3.81799e-14 0)
(5.82828 -3.59795e-14 0)
(5.82828 -1.94234e-14 0)
(5.82828 -1.46092e-14 0)
(5.82828 5.17423e-15 0)
(5.82828 5.71532e-14 0)
(5.82828 1.58244e-13 0)
(5.82828 1.41841e-13 0)
(5.82828 1.24425e-13 0)
(5.82828 9.46363e-14 0)
(5.82828 3.2699e-14 0)
(5.82828 -1.17687e-15 0)
(5.82828 8.33477e-17 0)
(5.82828 -9.91095e-16 0)
(5.82828 -1.89666e-14 0)
(5.82828 -2.06402e-14 0)
(5.82828 -3.13721e-14 0)
(5.82828 -3.93035e-14 0)
(5.82828 -2.93017e-14 0)
(5.82828 6.85118e-15 0)
(5.82828 3.44926e-14 0)
(5.82828 3.31691e-14 0)
(5.82828 5.03354e-14 0)
(5.82828 6.05805e-14 0)
(5.82828 2.9225e-14 0)
(5.82828 2.71547e-14 0)
(5.82828 4.6568e-14 0)
(5.82828 5.56796e-14 0)
(5.82828 2.79048e-14 0)
(5.82828 -2.70247e-14 0)
(5.82828 -2.07903e-14 0)
(5.82828 1.45358e-14 0)
(5.82828 -3.86e-14 0)
(5.82828 -6.23908e-14 0)
(5.82828 -5.9627e-14 0)
(5.82828 -3.30624e-14 0)
(5.82828 -1.40424e-14 0)
(5.82828 4.0307e-15 0)
(5.82828 5.70799e-14 0)
(5.82828 4.70715e-14 0)
(5.82828 6.3431e-14 0)
(5.82828 1.146e-13 0)
(5.82828 1.09532e-13 0)
(5.82828 1.27142e-13 0)
(5.82828 1.20571e-13 0)
(5.82828 1.49036e-13 0)
(5.82828 2.26209e-13 0)
(5.82828 2.48743e-13 0)
(5.82828 1.23355e-13 0)
(5.82828 -5.08821e-14 0)
(5.82828 -6.5598e-14 0)
(5.82828 -2.6818e-14 0)
(5.82828 -2.64846e-14 0)
(5.82828 -2.83633e-14 0)
(5.82828 1.21888e-14 0)
(5.82828 1.3409e-14 0)
(5.82828 1.46459e-14 0)
(5.82828 9.08157e-15 0)
(5.82828 5.51495e-14 0)
(5.82828 1.31786e-13 0)
(5.82828 1.76624e-13 0)
(5.82828 1.5305e-13 0)
(5.82828 1.44142e-13 0)
(5.82828 1.54973e-13 0)
(5.82828 1.46915e-13 0)
(5.82828 1.31473e-13 0)
(5.82828 7.64032e-14 0)
(5.82828 9.43163e-14 0)
(5.82828 1.06555e-13 0)
(5.82828 8.79619e-14 0)
(5.82828 5.4246e-14 0)
(5.82828 5.16523e-14 0)
(5.82828 6.25708e-14 0)
(5.82828 3.00685e-14 0)
(5.82828 -6.43811e-14 0)
(5.82828 -1.04185e-13 0)
(5.82828 -7.09623e-14 0)
(5.82828 -1.3599e-14 0)
(5.82828 1.04651e-14 0)
(5.82828 7.05555e-14 0)
(5.82828 8.25543e-14 0)
(5.82828 1.19127e-13 0)
(5.82828 1.30032e-13 0)
(5.82828 7.65932e-14 0)
(5.82828 8.66816e-14 0)
(5.82828 4.35242e-14 0)
(5.82828 -6.14373e-14 0)
(5.82828 -7.93104e-14 0)
(5.82828 -1.19674e-13 0)
(5.82828 -2.29693e-13 0)
(5.82828 -2.42232e-13 0)
(5.82828 -4.01069e-14 0)
(5.82828 -9.72501e-15 0)
(5.82828 -3.80411e-14 0)
(5.82828 5.08088e-15 0)
(5.82828 -8.90154e-16 0)
(5.82828 1.54893e-14 0)
(5.82828 4.74315e-14 0)
(5.82828 4.32975e-14 0)
(5.82828 2.93917e-14 0)
(5.82828 2.61912e-14 0)
(5.82828 2.43275e-14 0)
(5.82828 1.7603e-14 0)
(5.82828 8.5148e-15 0)
(5.82828 3.74565e-14 0)
(5.82828 8.86386e-14 0)
(5.82828 1.02951e-13 0)
(5.82828 8.57915e-14 0)
(5.82828 2.94284e-14 0)
(5.82828 1.27822e-14 0)
(5.82828 2.10236e-14 0)
(5.82828 3.63229e-14 0)
(5.82828 6.1714e-14 0)
(5.82828 5.14322e-14 0)
(5.82828 1.06685e-15 0)
(5.82828 -2.42842e-14 0)
(5.82828 -6.89119e-15 0)
(5.82828 4.90751e-15 0)
(5.82828 4.2434e-14 0)
(5.82828 8.21275e-14 0)
(5.82828 5.85501e-14 0)
(5.82828 1.1582e-14 0)
(5.82828 -3.5006e-14 0)
(5.82828 -9.4653e-14 0)
(5.82828 -4.8185e-14 0)
(5.82828 -6.5418e-14 0)
(5.82828 -5.38193e-14 0)
(5.82828 -8.63449e-14 0)
(5.82828 -1.25902e-13 0)
(5.82828 -1.74974e-13 0)
(5.82828 -1.45982e-13 0)
(5.82828 -8.67917e-14 0)
(5.82828 -9.59099e-14 0)
(5.82828 -7.87869e-14 0)
(5.82828 -1.23088e-14 0)
(5.82828 -3.32091e-14 0)
(5.82828 -2.02568e-14 0)
(5.82828 -1.40891e-14 0)
(5.82828 -7.37227e-14 0)
(5.82828 -1.03308e-13 0)
(5.82828 -7.733e-14 0)
(5.82828 -4.72482e-14 0)
(5.82828 -6.00404e-14 0)
(5.82828 -8.74484e-14 0)
(5.82828 -1.08609e-13 0)
(5.82828 -8.32944e-14 0)
(5.82828 2.76714e-16 0)
(5.82828 2.17037e-15 0)
(5.82828 -2.06336e-14 0)
(5.82828 -8.73784e-14 0)
(5.82828 -9.61799e-14 0)
(5.82828 -1.16067e-13 0)
(5.82828 -8.92154e-14 0)
(5.82828 -7.04422e-14 0)
(5.82828 -2.1377e-14 0)
(5.82828 4.47577e-14 0)
(5.82828 3.57962e-14 0)
(5.82828 1.94667e-14 0)
(5.82828 4.21873e-14 0)
(5.82828 7.32026e-14 0)
(5.82828 8.45246e-14 0)
(5.82828 7.99538e-14 0)
(5.82828 -2.23405e-14 0)
(5.82828 -6.51779e-14 0)
(5.82828 -5.66998e-14 0)
(5.82828 -4.4411e-14 0)
(5.82828 -3.866e-14 0)
(5.82828 -6.08472e-14 0)
(5.82828 -1.06625e-13 0)
(5.82828 -1.02031e-13 0)
(5.82828 -1.27002e-13 0)
(5.82828 -1.85535e-13 0)
(5.82828 -1.85279e-13 0)
(5.82828 -1.24531e-13 0)
(5.82828 2.91384e-15 0)
(5.82828 6.27442e-15 0)
(5.82828 1.21788e-14 0)
(5.82828 -3.58729e-15 0)
(5.82828 -3.03452e-14 0)
(5.82828 -7.09256e-14 0)
(5.82828 -7.30093e-14 0)
(5.82828 -2.1147e-14 0)
(5.82828 -1.75064e-14 0)
(5.82828 -1.26422e-14 0)
(5.82828 -3.36558e-14 0)
(5.82828 -3.17688e-14 0)
(5.82828 -3.90767e-14 0)
(5.82828 -4.09537e-14 0)
(5.82828 -3.30424e-14 0)
(5.82828 4.16405e-15 0)
(5.82828 -6.67182e-14 0)
(5.82828 -5.75599e-14 0)
(5.82828 -6.55947e-14 0)
(5.82828 -3.99936e-14 0)
(5.82828 4.74382e-14 0)
(5.82828 8.3071e-14 0)
(5.82828 7.82202e-14 0)
(5.82828 3.78899e-14 0)
(5.82828 -2.86383e-14 0)
(5.82828 -5.33125e-14 0)
(5.82828 -3.33091e-14 0)
(5.82828 -2.93584e-14 0)
(5.82828 -3.4886e-14 0)
(5.82828 -1.02391e-13 0)
(5.82828 -1.49616e-13 0)
(5.82828 -1.83145e-13 0)
(5.82828 -1.904e-14 0)
(5.82828 2.46409e-14 0)
(5.82828 4.52812e-14 0)
(5.82828 -4.12905e-14 0)
(5.82828 -1.5458e-13 0)
(5.82828 -1.37087e-13 0)
(5.82828 -1.08302e-13 0)
(5.82828 -9.88852e-14 0)
(5.82828 -1.96701e-16 0)
(5.82828 1.47792e-14 0)
(5.82828 5.71765e-15 0)
(5.82828 -9.52164e-15 0)
(5.82828 2.54144e-14 0)
(5.82828 4.4661e-14 0)
(5.82828 1.71196e-14 0)
(5.82828 -3.90534e-14 0)
(5.82828 -4.90051e-14 0)
(5.82828 -1.38691e-14 0)
(5.82828 1.94134e-14 0)
(5.82828 -6.06771e-16 0)
(5.82828 -5.15156e-14 0)
(5.82828 -6.38477e-14 0)
(5.82828 -3.30757e-14 0)
(5.82828 1.80331e-14 0)
(5.82828 4.0687e-14 0)
(5.82828 4.30541e-14 0)
(5.82828 3.54328e-14 0)
(5.82828 3.4856e-14 0)
(5.82828 5.02653e-14 0)
(5.82828 8.71884e-14 0)
(5.82828 1.19994e-13 0)
(5.82828 5.84368e-14 0)
(5.82828 1.64262e-14 0)
(5.82828 -2.45409e-14 0)
(5.82828 -4.96719e-14 0)
(5.82828 -8.86553e-14 0)
(5.82828 -9.63266e-14 0)
(5.82828 -7.61465e-14 0)
(5.82828 -1.12706e-13 0)
(5.82828 -1.70543e-13 0)
(5.82828 -1.77694e-13 0)
(5.82828 7.76834e-14 0)
(5.82828 1.45892e-13 0)
(5.82828 1.57661e-13 0)
(5.82828 8.21008e-14 0)
(5.82828 3.69897e-14 0)
(5.82828 3.82733e-14 0)
(5.82828 3.66194e-14 0)
(5.82828 1.33356e-17 0)
(5.82828 8.56481e-15 0)
(5.82828 1.66695e-16 0)
(5.82828 1.23488e-14 0)
(5.82828 1.72663e-14 0)
(5.82828 3.61596e-14 0)
(5.82828 5.19723e-14 0)
(5.82828 -2.60612e-14 0)
(5.82828 -2.95618e-14 0)
(5.82828 -4.49011e-14 0)
(5.82828 -4.70181e-14 0)
(5.82828 -6.62881e-14 0)
(5.82828 -5.30858e-14 0)
(5.82828 -4.54245e-14 0)
(5.82828 -3.81633e-14 0)
(5.82828 -2.12503e-14 0)
(5.82828 3.70164e-14 0)
(5.82828 5.56496e-14 0)
(5.82828 7.09089e-14 0)
(5.82828 7.70466e-14 0)
(5.82828 4.43777e-14 0)
(5.82828 6.80184e-14 0)
(5.82828 8.28376e-14 0)
(5.82828 1.07165e-13 0)
(5.82828 8.6975e-14 0)
(5.82828 5.00453e-14 0)
(5.82828 4.16339e-14 0)
(5.82828 7.52597e-14 0)
(5.82828 7.1149e-14 0)
(5.82828 -5.9777e-15 0)
(5.82828 -2.90117e-14 0)
(5.82828 -2.62679e-14 0)
(5.82828 -5.13055e-14 0)
(5.82828 -5.56196e-14 0)
(5.82828 2.08169e-14 0)
(5.82828 1.1795e-13 0)
(5.82828 1.22831e-13 0)
(5.82828 7.15857e-14 0)
(5.82828 1.42891e-14 0)
(5.82828 2.63919e-14 0)
(5.82828 4.4441e-15 0)
(5.82828 1.24288e-14 0)
(5.82828 1.11019e-14 0)
(5.82828 1.15387e-14 0)
(5.82828 1.958e-14 0)
(5.82828 4.17805e-14 0)
(5.82828 5.19356e-14 0)
(5.82828 6.65515e-14 0)
(5.82828 9.30227e-14 0)
(5.82828 5.2049e-14 0)
(5.82828 -2.7138e-14 0)
(5.82828 -5.09121e-14 0)
(5.82828 -6.92686e-14 0)
(5.82828 -7.06755e-14 0)
(5.82828 -7.81135e-14 0)
(5.82828 -3.6903e-14 0)
(5.82828 -2.73914e-14 0)
(5.82828 -4.77149e-14 0)
(5.82828 -4.67481e-14 0)
(5.82828 -8.22475e-15 0)
(5.82828 4.86417e-15 0)
(5.82828 -6.47779e-15 0)
(5.82828 1.00284e-14 0)
(5.82828 3.71464e-14 0)
(5.82828 8.64816e-15 0)
(5.82828 -5.25091e-15 0)
(5.82828 -4.65414e-14 0)
(5.82828 6.98787e-15 0)
(5.82828 1.68529e-14 0)
(5.82828 2.24139e-14 0)
(5.82828 1.80865e-14 0)
(5.82828 5.30858e-14 0)
(5.82828 1.364e-13 0)
(5.82828 1.49683e-13 0)
(5.82828 1.47969e-13 0)
(5.82828 1.65435e-13 0)
(5.82828 1.64888e-13 0)
(5.82828 1.49983e-13 0)
(5.82828 9.47064e-14 0)
(5.82828 7.07652e-14 0)
(5.82828 2.84382e-15 0)
(5.82828 -6.73783e-15 0)
(5.82828 -1.1862e-14 0)
(5.82828 -1.59994e-14 0)
(5.82828 1.3469e-14 0)
(5.82828 1.51626e-14 0)
(5.82828 2.03002e-14 0)
(5.82828 6.57347e-14 0)
(5.82828 6.46012e-14 0)
(5.82828 6.48945e-14 0)
(5.82828 4.79416e-14 0)
(5.82828 1.3749e-14 0)
(5.82828 -4.44977e-14 0)
(5.82828 -5.50528e-14 0)
(5.82828 -4.76216e-14 0)
(5.82828 -4.32641e-14 0)
(5.82828 -4.05637e-14 0)
(5.82828 -4.44077e-14 0)
(5.82828 -4.8215e-14 0)
(5.82828 -6.11439e-14 0)
(5.82828 -7.00454e-14 0)
(5.82828 -1.16147e-13 0)
(5.82828 -1.40381e-13 0)
(5.82828 -1.3718e-13 0)
(5.82828 -1.36714e-13 0)
(5.82828 -1.17777e-13 0)
(5.82828 -1.42628e-13 0)
(5.82828 -1.02038e-13 0)
(5.82828 -3.20855e-14 0)
(5.82828 -6.88119e-15 0)
(5.82828 6.62448e-15 0)
(5.82828 3.1032e-14 0)
(5.82828 9.76935e-14 0)
(5.82828 7.87469e-14 0)
(5.82828 7.83902e-14 0)
(5.82828 8.98222e-14 0)
(5.82828 1.17554e-13 0)
(5.82828 1.1511e-13 0)
(5.82828 1.62591e-13 0)
(5.82828 1.6002e-13 0)
(5.82828 -4.43077e-15 0)
(5.82828 -2.37341e-14 0)
(5.82828 -2.98718e-14 0)
(5.82828 -2.22372e-14 0)
(5.82828 -2.72647e-14 0)
(5.82828 -5.02487e-14 0)
(5.82828 -3.40425e-14 0)
(5.82828 1.34757e-14 0)
(5.82828 8.46813e-16 0)
(5.82828 1.66695e-17 0)
(5.82828 9.16492e-15 0)
(5.82828 5.75699e-14 0)
(5.82828 5.03587e-14 0)
(5.82828 2.43375e-15 0)
(5.82828 9.2716e-15 0)
(5.82828 2.9035e-14 0)
(5.82828 3.22256e-14 0)
(5.82828 4.63313e-14 0)
(5.82828 4.65714e-14 0)
(5.82828 -1.41024e-14 0)
(5.82828 -2.91217e-14 0)
(5.82828 -3.0922e-14 0)
(5.82828 -6.50079e-14 0)
(5.82828 -8.45179e-14 0)
(5.82828 -7.78634e-14 0)
(5.82828 -7.06222e-14 0)
(5.82828 -7.21325e-14 0)
(5.82828 -1.32273e-13 0)
(5.82828 -1.9209e-13 0)
(5.82828 -1.85245e-13 0)
(5.82828 -1.01898e-13 0)
(5.82828 -5.74333e-14 0)
(5.82828 -1.92667e-14 0)
(5.82828 -5.80834e-14 0)
(5.82828 -1.87199e-14 0)
(5.82828 6.9212e-15 0)
(5.82828 2.04402e-14 0)
(5.82828 4.31241e-14 0)
(5.82828 5.0442e-14 0)
(5.82828 4.50327e-14 0)
(5.82828 -1.77597e-14 0)
(5.82828 -1.1322e-14 0)
(5.82828 -1.10886e-14 0)
(5.82828 -4.36275e-14 0)
(5.82828 -1.00911e-13 0)
(5.82828 -9.26327e-14 0)
(5.82828 -8.2851e-14 0)
(5.82828 -6.72449e-14 0)
(5.82828 -5.09888e-14 0)
(5.82828 -5.31692e-14 0)
(5.82828 -4.95519e-14 0)
(5.82828 6.20107e-15 0)
(5.82828 2.71414e-14 0)
(5.82828 7.64399e-14 0)
(5.82828 1.40954e-13 0)
(5.82828 1.41414e-13 0)
(5.82828 1.05045e-13 0)
(5.82828 5.37526e-14 0)
(5.82828 -4.73748e-15 0)
(5.82828 4.25073e-14 0)
(5.82828 4.30474e-14 0)
(5.82828 3.00152e-14 0)
(5.82828 1.48359e-15 0)
(5.82828 -1.40424e-14 0)
(5.82828 -4.26074e-15 0)
(5.82828 5.70432e-15 0)
(5.82828 7.76467e-15 0)
(5.82828 -5.37126e-14 0)
(5.82828 -7.40828e-14 0)
(5.82828 -7.84435e-14 0)
(5.82828 -5.43527e-14 0)
(5.82828 -4.66381e-14 0)
(5.82828 -4.55645e-14 0)
(5.82828 -1.75364e-15 0)
(5.82828 -2.4821e-14 0)
(5.82828 9.655e-15 0)
(5.82828 8.47813e-15 0)
(5.82828 2.74047e-14 0)
(5.82828 -1.85299e-14 0)
(5.82828 -6.85639e-14 0)
(5.82828 2.97385e-15 0)
(5.82828 1.77864e-14 0)
(5.82828 3.76598e-14 0)
(5.82828 4.0267e-14 0)
(5.82828 -1.02851e-14 0)
(5.82828 -8.73484e-15 0)
(5.82828 -7.26792e-16 0)
(5.82828 -2.50977e-14 0)
(5.82828 -3.6683e-14 0)
(5.82828 -4.39409e-14 0)
(5.82828 -4.15738e-15 0)
(5.82828 4.62813e-14 0)
(5.82828 9.22993e-14 0)
(5.82828 1.74073e-13 0)
(5.82828 1.47625e-13 0)
(5.82828 1.30676e-13 0)
(5.82828 7.83035e-14 0)
(5.82828 2.80715e-15 0)
(5.82828 -6.92786e-15 0)
(5.82828 1.51693e-15 0)
(5.82828 6.22107e-15 0)
(5.82828 5.75766e-15 0)
(5.82828 4.2604e-14 0)
(5.82828 5.90402e-14 0)
(5.82828 7.10589e-14 0)
(5.82828 5.27991e-14 0)
(5.82828 3.67397e-14 0)
(5.82828 6.7745e-14 0)
(5.82828 7.14623e-14 0)
(5.82828 8.18575e-14 0)
(5.82828 4.94752e-14 0)
(5.82828 8.73151e-15 0)
(5.82828 9.95172e-15 0)
(5.82828 -2.46709e-15 0)
(5.82828 -8.88153e-14 0)
(5.82828 -1.55937e-13 0)
(5.82828 -1.47085e-13 0)
(5.82828 -1.06725e-13 0)
(5.82828 -1.09109e-13 0)
(5.82828 -1.29516e-13 0)
(5.82828 2.15604e-14 0)
(5.82828 3.23089e-14 0)
(5.82828 4.4661e-14 0)
(5.82828 9.89504e-14 0)
(5.82828 1.30699e-13 0)
(5.82828 9.14791e-14 0)
(5.82828 5.93903e-14 0)
(5.82828 1.88966e-14 0)
(5.82828 1.959e-14 0)
(5.82828 1.06085e-14 0)
(5.82828 7.97738e-14 0)
(5.82828 1.28659e-13 0)
(5.82828 1.82005e-13 0)
(5.82828 6.06505e-14 0)
(5.82828 5.27424e-15 0)
(5.82828 -2.94884e-14 0)
(5.82828 -3.21822e-14 0)
(5.82828 -1.65362e-15 0)
(5.82828 6.67115e-15 0)
(5.82828 -1.40791e-14 0)
(5.82828 3.6873e-15 0)
(5.82828 6.56347e-14 0)
(5.82828 1.04358e-13 0)
(5.82828 9.54765e-14 0)
(5.82828 -5.32992e-14 0)
(5.82828 -5.9567e-14 0)
(5.82828 -1.10219e-14 0)
(5.82828 1.33156e-14 0)
(5.82828 5.37226e-14 0)
(5.82828 6.24875e-14 0)
(5.82828 6.00937e-14 0)
(5.82828 7.84135e-14 0)
(5.82828 8.43579e-14 0)
(5.82828 5.90969e-14 0)
(5.82828 1.31589e-14 0)
(5.82828 -1.68462e-14 0)
(5.82828 -3.89501e-14 0)
(5.82828 -3.33458e-14 0)
(5.82828 7.11456e-15 0)
(5.82828 -6.58225e-14 0)
(5.82828 -7.84469e-15 0)
(5.82828 -6.47112e-15 0)
(5.82828 -2.04035e-15 0)
(5.82828 7.71133e-15 0)
(5.82828 2.98118e-14 0)
(5.82828 3.53428e-14 0)
(5.82828 1.14086e-14 0)
(5.82828 -3.55695e-14 0)
(5.82828 -3.80732e-14 0)
(5.82828 1.11686e-14 0)
(5.82828 1.01311e-13 0)
(5.82828 1.21791e-13 0)
(5.82828 3.67597e-14 0)
(5.82828 -5.66765e-14 0)
(5.82828 -5.14756e-14 0)
(5.82828 -2.13637e-14 0)
(5.82828 -1.35423e-14 0)
(5.82828 -5.61764e-15 0)
(5.82828 1.82698e-15 0)
(5.82828 2.92951e-14 0)
(5.82828 6.10672e-14 0)
(5.82828 8.12807e-14 0)
(5.82828 6.42544e-14 0)
(5.82828 -7.9367e-14 0)
(5.82828 -1.65559e-13 0)
(5.82828 -2.21375e-13 0)
(5.82828 -1.29572e-13 0)
(5.82828 -7.82102e-14 0)
(5.82828 -2.46809e-14 0)
(5.82828 -2.65146e-14 0)
(5.82828 -3.33058e-14 0)
(5.82828 -1.76664e-14 0)
(5.82828 -8.20608e-14 0)
(5.82828 -1.02218e-13 0)
(5.82828 -7.94304e-14 0)
(5.82828 1.5546e-14 0)
(5.82828 7.66966e-14 0)
(5.82828 5.6013e-14 0)
(5.82828 1.948e-14 0)
(5.82828 -2.78463e-14 0)
(5.82828 4.8175e-15 0)
(5.82828 -1.45692e-15 0)
(5.82828 1.45025e-15 0)
(5.82828 8.56815e-16 0)
(5.82828 -2.07036e-14 0)
(5.82828 -3.17288e-14 0)
(5.82828 -3.09087e-14 0)
(5.82828 -3.08053e-15 0)
(5.82828 4.58079e-15 0)
(5.82828 4.0667e-14 0)
(5.82828 9.36062e-14 0)
(5.82828 7.50263e-14 0)
(5.82828 -1.95767e-14 0)
(5.82828 -7.17124e-14 0)
(5.82828 -5.6173e-14 0)
(5.82828 -1.96834e-14 0)
(5.82828 7.05122e-15 0)
(5.82828 1.1792e-14 0)
(5.82828 1.3649e-14 0)
(5.82828 8.83819e-15 0)
(5.82828 -2.46709e-16 0)
(5.82828 4.38742e-15 0)
(5.82828 -4.67847e-14 0)
(5.82828 -1.12646e-13 0)
(5.82828 -1.3798e-13 0)
(5.82828 -1.44698e-13 0)
(5.82828 -1.89813e-13 0)
(5.82828 -1.99461e-13 0)
(5.82828 -2.07436e-13 0)
(5.82828 -1.23005e-13 0)
(5.82828 -1.12679e-13 0)
(5.82828 -1.19057e-13 0)
(5.82828 -9.53265e-14 0)
(5.82828 -6.66915e-14 0)
(5.82828 -6.91219e-14 0)
(5.82828 -1.43091e-14 0)
(5.82828 4.24673e-14 0)
(5.82828 3.38192e-14 0)
(5.82828 -2.13704e-14 0)
(5.82828 -1.40083e-14 0)
(5.82828 8.23476e-16 0)
(5.82828 8.51814e-15 0)
(5.82828 1.63895e-14 0)
(5.82828 1.00017e-14 0)
(5.82828 6.9212e-15 0)
(5.82828 9.8717e-15 0)
(5.82828 4.96752e-15 0)
(5.82828 3.6713e-14 0)
(5.82828 6.13306e-14 0)
(5.82828 1.54327e-14 0)
(5.82828 -3.01552e-14 0)
(5.82828 -2.12803e-14 0)
(5.82828 -1.39757e-14 0)
(5.82828 -9.36828e-15 0)
(5.82828 -1.1322e-14 0)
(5.82828 -3.61029e-14 0)
(5.82828 -2.63245e-14 0)
(5.82828 -1.98368e-14 0)
(5.82828 2.71714e-15 0)
(5.82828 -2.61178e-14 0)
(5.82828 -5.90469e-14 0)
(5.82828 -7.11623e-14 0)
(5.82828 -2.91717e-14 0)
(5.82828 5.14255e-14 0)
(5.82828 1.23245e-13 0)
(5.82828 1.84062e-13 0)
(5.82828 5.70265e-14 0)
(5.82828 -5.72799e-14 0)
(5.82828 -1.1703e-13 0)
(5.82828 -1.42981e-13 0)
(5.82828 -1.20951e-13 0)
(5.82828 -1.88396e-13 0)
(5.82828 -1.3794e-13 0)
(5.82828 -1.47365e-13 0)
(5.82828 -1.76454e-13 0)
(5.82828 -1.64712e-13 0)
(5.82828 -1.35307e-13 0)
(5.82828 -1.21211e-13 0)
(5.82828 -1.19507e-13 0)
(5.82828 -1.1117e-13 0)
(5.82828 -1.02951e-14 0)
(5.82828 -1.37124e-14 0)
(5.82828 -4.02736e-14 0)
(5.82828 -5.91702e-14 0)
(5.82828 -6.24841e-14 0)
(5.82828 -3.36725e-15 0)
(5.82828 1.15587e-14 0)
(5.82828 -6.64781e-15 0)
(5.82828 -7.01288e-14 0)
(5.82828 -1.42058e-13 0)
(5.82828 -1.88166e-13 0)
(5.82828 -1.73003e-13 0)
(5.82828 -5.71099e-14 0)
(5.82828 -8.8682e-15 0)
(5.82828 2.71547e-14 0)
(5.82828 2.73047e-14 0)
(5.82828 9.54165e-15 0)
(5.82828 -5.60697e-14 0)
(5.82828 -8.93654e-14 0)
(5.82828 -7.37894e-14 0)
(5.82828 -1.65062e-14 0)
(5.82828 -1.33356e-15 0)
(5.82828 -5.02087e-15 0)
(5.82828 2.8855e-14 0)
(5.82828 7.71533e-14 0)
(5.82828 9.30227e-14 0)
(5.82828 5.2399e-14 0)
(5.82828 -2.06169e-14 0)
(5.82828 -1.03498e-13 0)
(5.82828 -1.10196e-13 0)
(5.82828 -6.0017e-14 0)
(5.82828 -7.63265e-14 0)
(5.82828 -2.00008e-13 0)
(5.82828 -2.32033e-13 0)