/*--------------------------------*- C++ -*----------------------------------*\
| =========                 |                                                 |
| \\      /  F ield         | OpenFOAM: The Open Source CFD Toolbox           |
|  \\    /   O peration     | Version:  2206                                  |
|   \\  /    A nd           | Website:  www.openfoam.com                      |
|    \\/     M anipulation  |                                                 |
\*---------------------------------------------------------------------------*/
FoamFile
{
    version     2.0;
    format      ascii;
    arch        "LSB;label=32;scalar=64";
    class       volScalarField;
    location    "0.2";
    object      T;
}
// * * * * * * * * * * * * * * * * * * * * * * * * * * * * * * * * * * * * * //

dimensions      [0 0 0 1 0 0 0];

internalField   nonuniform List<scalar> 
4800
(
1
1
1
1
1
1
1
1
1
1
1
1
1
1
1
1
1
1
1
1
1
1
1
1
1
1
1
1
1
1
1
1
1
1
1
1
1
1
1
1
1
1
1
1
1
1
1
1
1
1
1
1
1
1
1
1
1
1
1
1
1
1
1
1
1
1
1
1
1
1
1
1
1
1
1
1
1
1
1
1
1
1
1
1
1
1
1
1
1
1
1
1
1
1
1
1
1
1
1
1
1
1
1
1
1
1
1
1
1
1
1
1
1
1
1
1
1
1
1
1
1
1
1
1
1
1
1
1
1
1
1
1
1
1
1
1
1
1
1
1
1
1
1
1
1
1
1
1
1
1
1
1
1
1
1
1
1
1
1
1
1
1
1
1
1
1
1
1
1
1
1
1
1
1
1
1
1
1
1
1
1
1
1
1
1
1
1
1
1
1
1
1
1
1
1
1
1
1
1
1
1
1
1
1
1
1
1
1
1
1
1
1
1
1
1
1
1
1
1
1
1
1
1
1
1
1
1
1
1
1
1
1
1
1
1
1
1
1
1
1
1
1
1
1
1
1
1
1
1
1
1
1
1
1
1
1
1
1
1
1
1
1
1
1
1
1
1
1
1
1
1
1
1
1
1
1
1
1
1
1
1
1
1
1
1
1
1
1
1
1
1
1
1
1
1
1
1
1
1
1
1
1
1
1
1
1
1
1
1
1
1
1
1
1
1
1
1
1
1
1
1
1
1
1
1
1
1
1
1
1
1
1
1
1
1
1
1
1
1
1
1
1
1
1
1
1
1
1
1
1
1
1
1
1
1
1
1
1
1
1
1
1
1
1
1
1
1
1
1
1
1
1
1
1
1
1
1
1
1
1
1
1
1
1
1
1
1
1
1
1
1
1
1
1
1
1
1
1
1
1
1
1
1
1
1
1
1
1
1
1
1
1
1
1
1
1
1
1
1
1
1
1
1
1
1
1
1
1
1
1
1
1
1
1
1
1
1
1
1
1
1
1
1
1
1
1
1
1
1
1
1
1
1
1
1
1
1
1
1
1
1
1
1
1
1
1
1
1
1
1
1
1
1
1
1
1
1
1
1
1
1
1
1
1
1
1
1
1
1
1
1
1
1
1
1
1
1
1
1
1
1
1
1
1
1
1
1
1
1
1
1
1
1
1
1
1
1
1
1
1
1
1
1
1
1
1
1
1
1
1
1
1
1
1
1
1
1
1
1
1
1
1
1
1
1
1
1
1
1
1
1
1
1
1
1
1
1
1
1
1
1
1
1
1
1
1
1
1
1
1
1
1
1
1
1
1
1
1
1
1
1
1
1
1
1
1
1
1
1
1
1
1
1
1
1
1
1
1
1
1
1
1
1
1
1
1
1
1
1
1
1
1
1
1
1
1
1
1
1
1
1
1
1
1
1
1
1
1
1
1
1
1
1
1
1
1
1
1
1
1
1
1
1
1
1
1
1
1
1
1
1
1
1
1
1
1
1
1
1
1
1
1
1
1
1
1
1
1
1
1
1
1
1
1
1
1
1
1
1
1
1
1
1
1
1
1
1
1
1
1
1
1
1
1
1
1
1
1
1
1
1
1
1
1
1
1
1
1
1
1
1
1
1
1
1
1
1
1
1
1
1
1
1
1
1
1
1
1
1
1
1
1
1
1
1
1
1
1
1
1
1
1
1
1
1
1
1
1
1
1
1
1
1
1
1
1
1
1
1
1
1
1
1
1
1
1
1
1
1
1
1
1
1
1
1
1
1
1
1
1
1
1
1
1
1
1
1
1
1
1
1
1
1
1
1
1
1
1
1
1
1
1
1
1
1
1
1
1
1
1
1
1
1
1
1
1
1
1
1
1
1
1
1
1
1
1
1
1
1
1
1
1
1
1
1
1
1
1
1
1
1
1
1
1
1
1
1
1
1
1
1
1
1
1
1
1
1
1
1
1
1
1
1
1
1
1
1
1
1
1
1
1
1
1
1
1
1
1
1
1
1
1
1
1
1
1
1
1
1
1
1
1
1
1
1
1
1
1
1
1
1
1
1
1
1
1
1
1
1
1
1
1
1
1
1
1
1
1
1
1
1
1
1
1
1
1
1
1
1
1
1
1
1
1
1
1
1
1
1
1
1
1
1
1
1
1
1
1
1
1
1
1
1
1
1
1
1
1
1
1
1
1
1
1
1
1
1
1
1
1
1
1
1
1
1
1
1
1
1
1
1
1
1
1
1
1
1
1
1
1
1
1
1
1
1
1
1
1
1
1
1
1
1
1
1
1
1
1
1
1
1
1
1
1
1
1
1
1
1
1
1
1
1
1
1
1
1
1
1
1
1
1
1
1
1
1
1
1
1
1
1
1
1
1
1
1
1
1
1
1
1
1
1
1
1
1
1
1
1
1
1
1
1
1
1
1
1
1
1
1
1
1
1
1
1
1
1
1
1
1
1
1
1
1
1
1
1
1
1
1
1
1
1
1
1
1
1
1
1
1
1
1
1
1
1
1
1
1
1
1
1
1
1
1
1
1
1
1
1
1
1
1
1
1
1
1
1
1
1
1
1
1
1
1
1
1
1
1
1
1
1
1
1
1
1
1
1
1
1
1
1
1
1
1
1
1
1
1
1
1
1
1
1
1
1
1
1
1
1
1
1
1
1
1
1
1
1
1
1
1
1
1
1
1
1
1
1
1
1
1
1
1
1
1
1
1
1
1
1
1
1
1
1
1
1
1
1
1
1
1
1
1
1
1
1
1
1
1
1
1
1
1
1
1
1
1
1
1
1
1
1
1
1
1
1
1
1
1
1
1
1
1
1
1
1
1
1
1
1
1
1
1
1
1
1
1
1
1
1
1
1
1
1
1
1
1
1
1
1
1
1
1
1
1
1
1
1
1
1
1
1
1
1
1
1
1
1
1
1
1
1
1
1
1
1
1
1
1
1
1
1
1
1
1
1
1
1
1
1
1
1
1
1
1
1
1
1
1
1
1
1
1
1
1
1
1
1
1
1
1
1
1
1
1
1
1
1
1
1
1
1
1
1
1
1
1
1
1
1
1
1
1
1
1
1
1
1
1
1
1
1
1
1
1
1
1
1
1
1
1
1
1
1
1
1
1
1
1
1
1
1
1
1
1
1
1
1
1
1
1
1
1
1
1
1
1
1
1
1
1
1
1
1
1
1
1
1
1
1
1
1
1
1
1
1
1
1
1
1
1
1
1
1
1
1
1
1
1
1
1
1
1
1
1
1
1
1
1
1
1
1
1
1
1
1
1
1
1
1
1
1
1
1
1
1
1
1
1
1
1
1
1
1
1
1
1
1
1
1
1
1
1
1
1
1
1
1
1
1
1
1
1
1
1
1
1
1
1
1
1
1
1
1
1
1
1
1
1
1
1
1
1
1
1
1
1
1
1
1
1
1
1
1
1
1
1
1
1
1
1
1
1
1
1
1
1
1
1
1
1
1
1
1
1
1
1
1
1
1
1
1
1
1
1
1
1
1
1
1
1
1
1
1
1
1
1
1
1
1
1
1
1
1
1
1
1
1
1
1
1
1
1
1
1
1
1
1
1
1
1
1
1
1
1
1
1
1
1
1
1
1
1
1
1
1
1
1
1
1
1
1.07458
1.16846
1.26862
1.34643
1.41218
1.46908
1.50207
1.51023
1.50014
1.4747
1.44122
1.4109
1.39425
1.38274
1.38303
1.38524
1.38962
1.39379
1.39669
1.39652
1.39651
1.39694
1.3984
1.40039
1.40164
1.40178
1.40162
1.40145
1.40147
1.40164
1.402
1.40242
1.40245
1.4023
1.40221
1.40242
1.4031
1.404
1.40458
1.40471
1.40459
1.40421
1.40365
1.40334
1.40332
1.40349
1.40385
1.40412
1.40414
1.4041
1.40401
1.40398
1.404
1.404
1.40401
1.40405
1.40409
1.40418
1.40439
1.40462
1.40474
1.40478
1.40476
1.40466
1.40459
1.40457
1.40458
1.40463
1.40481
1.405
1.40505
1.40508
1.40509
1.40506
1.40489
1.40463
1.40443
1.40433
1.40426
1.4039
1.00301
1.01509
1.0412
1.09638
1.15473
1.22104
1.28003
1.33567
1.36562
1.39256
1.42089
1.41821
1.41194
1.41011
1.40677
1.40199
1.40067
1.39838
1.39673
1.39707
1.39784
1.39896
1.40035
1.40185
1.40268
1.40255
1.40261
1.40283
1.40304
1.4033
1.40328
1.40324
1.40319
1.40305
1.403
1.40314
1.40358
1.40416
1.40453
1.40467
1.40467
1.40447
1.40411
1.40387
1.40385
1.404
1.40435
1.40461
1.4047
1.40469
1.4046
1.40451
1.40442
1.40439
1.40441
1.40446
1.40452
1.40461
1.40473
1.40483
1.40489
1.40491
1.40489
1.4048
1.4047
1.40468
1.40469
1.40477
1.40494
1.40512
1.40519
1.4052
1.4052
1.40516
1.405
1.40476
1.40458
1.4045
1.40444
1.404
1
1.00004
1.00034
1.00223
1.00893
1.0294
1.08033
1.16185
1.28134
1.372
1.43713
1.4473
1.4446
1.43957
1.43249
1.41676
1.40648
1.40327
1.40121
1.40276
1.40428
1.40461
1.40473
1.40497
1.40554
1.40612
1.40698
1.40775
1.40797
1.40803
1.40775
1.40709
1.40671
1.40649
1.4062
1.40619
1.40633
1.40655
1.40678
1.4069
1.40687
1.40672
1.40639
1.40601
1.40593
1.40605
1.40632
1.40658
1.40671
1.4067
1.40656
1.40637
1.40614
1.40599
1.40596
1.40597
1.40599
1.40603
1.40608
1.40607
1.40606
1.40604
1.40597
1.40581
1.40562
1.40555
1.40554
1.40557
1.40569
1.40588
1.40593
1.40592
1.40589
1.40581
1.40564
1.40541
1.40521
1.40514
1.40504
1.40452
1
1
1
1
1.00001
1.00017
1.00145
1.00787
1.05047
1.14591
1.27672
1.3638
1.41982
1.43013
1.42714
1.43
1.42952
1.42733
1.42105
1.41698
1.41193
1.40889
1.40798
1.4088
1.41006
1.4113
1.41277
1.41353
1.41351
1.41351
1.41317
1.41242
1.41197
1.41167
1.41112
1.41092
1.411
1.4111
1.41126
1.41127
1.4111
1.4108
1.41035
1.40981
1.40971
1.40978
1.40995
1.41014
1.41024
1.41019
1.40995
1.40963
1.40926
1.40897
1.40887
1.40883
1.40878
1.40876
1.40873
1.4086
1.40846
1.40837
1.40822
1.40795
1.40766
1.40751
1.40741
1.40738
1.40743
1.40756
1.40758
1.40752
1.40742
1.40728
1.40706
1.40681
1.4066
1.40647
1.40632
1.40569
1
1
1
1
1
1
1
1.00001
1.0004
1.0048
1.03209
1.12958
1.24528
1.35523
1.40226
1.44168
1.44437
1.44215
1.43727
1.4256
1.41167
1.4101
1.41132
1.41329
1.41435
1.41493
1.41525
1.41579
1.41615
1.4163
1.41634
1.41622
1.41607
1.41592
1.41536
1.41515
1.41534
1.41548
1.41558
1.41556
1.41519
1.41458
1.41406
1.41359
1.41348
1.41358
1.41384
1.41397
1.41398
1.41388
1.41354
1.41312
1.41268
1.41234
1.41222
1.41216
1.41205
1.41198
1.41191
1.41171
1.41149
1.41134
1.41114
1.41079
1.41042
1.41017
1.40998
1.40989
1.40992
1.41002
1.41002
1.4099
1.40971
1.40948
1.40917
1.40886
1.40864
1.40846
1.40826
1.40749
1
1
1
1
1
1
1
1
1
1
1.00017
1.00369
1.02355
1.10271
1.22448
1.33847
1.40099
1.41504
1.42243
1.42336
1.41841
1.41642
1.41737
1.41733
1.41718
1.41644
1.41491
1.41473
1.41493
1.41538
1.41614
1.41692
1.41737
1.4173
1.41681
1.41661
1.41697
1.4173
1.41735
1.41743
1.41714
1.41643
1.41592
1.41559
1.41555
1.41576
1.41622
1.41636
1.41635
1.41621
1.41584
1.41534
1.41494
1.41469
1.41466
1.41467
1.4146
1.41451
1.41449
1.41436
1.41414
1.41399
1.41379
1.41344
1.41305
1.41273
1.41248
1.41239
1.41243
1.41256
1.41257
1.41245
1.41221
1.41192
1.41154
1.41118
1.41093
1.41075
1.41053
1.40967
1
1
1
1
1
1
1
1
1
1
1
1
1.0001
1.00215
1.02218
1.08364
1.20483
1.30858
1.39238
1.4179
1.42543
1.42544
1.42395
1.42013
1.41805
1.41668
1.41489
1.41391
1.41391
1.41406
1.41485
1.41588
1.41675
1.41706
1.41692
1.41684
1.41728
1.41748
1.41751
1.41761
1.41743
1.41697
1.4165
1.41623
1.41617
1.41641
1.41702
1.41725
1.41725
1.41713
1.41677
1.41623
1.41594
1.41586
1.41589
1.41601
1.41602
1.41598
1.41601
1.41599
1.41584
1.41571
1.41555
1.41525
1.41491
1.4146
1.41436
1.4143
1.41437
1.41459
1.41469
1.41462
1.4144
1.41409
1.41369
1.41333
1.41309
1.41292
1.41273
1.41185
1
1
1
1
1
1
1
1
1
1
1
1
1
1
1.0001
1.00147
1.01715
1.07686
1.1828
1.29311
1.36976
1.41379
1.4169
1.4194
1.42066
1.4195
1.41723
1.41651
1.41591
1.4152
1.41425
1.41406
1.41489
1.41616
1.41676
1.41689
1.41719
1.41739
1.41748
1.41751
1.41728
1.41667
1.41619
1.41598
1.416
1.41637
1.41716
1.41748
1.41746
1.41733
1.41696
1.41642
1.41619
1.41617
1.41625
1.41643
1.41655
1.41663
1.41675
1.41674
1.41661
1.41653
1.4164
1.41613
1.41586
1.41563
1.41545
1.41541
1.4155
1.41576
1.41597
1.41598
1.41586
1.4156
1.41525
1.41493
1.41472
1.41458
1.41445
1.4136
1
1
1
1
1
1
1
1
1
1
1
1
1
1
1
1
1.00008
1.00145
1.01205
1.07455
1.17439
1.28523
1.34809
1.39975
1.41607
1.41758
1.41707
1.41742
1.41645
1.41434
1.41352
1.41333
1.41376
1.41471
1.41555
1.41631
1.41707
1.41714
1.41709
1.41685
1.41641
1.41594
1.41575
1.41575
1.41585
1.41633
1.41702
1.41732
1.41733
1.41724
1.41679
1.41624
1.41614
1.41616
1.41629
1.41648
1.41666
1.41687
1.41704
1.41697
1.41683
1.41675
1.4166
1.41634
1.41613
1.41594
1.41579
1.41578
1.41589
1.41615
1.41639
1.41646
1.41642
1.41628
1.41605
1.41579
1.41563
1.41552
1.41544
1.41467
1
1
1
1
1
1
1
1
1
1
1
1
1
1
1
1
1
1
1.00005
1.0016
1.01153
1.06252
1.16758
1.28095
1.3508
1.38132
1.39721
1.40598
1.40924
1.40924
1.40936
1.41001
1.41011
1.41047
1.41137
1.41272
1.41381
1.41446
1.41452
1.41433
1.41401
1.41374
1.4138
1.41399
1.41433
1.41505
1.41579
1.41616
1.41631
1.41632
1.41608
1.41574
1.41568
1.41573
1.41591
1.41617
1.41646
1.41673
1.41679
1.41671
1.41666
1.4166
1.41641
1.41614
1.41596
1.41582
1.4157
1.41569
1.41584
1.41614
1.41636
1.41647
1.41651
1.41646
1.4163
1.4161
1.41596
1.41587
1.41577
1.41503
1
1
1
1
1
1
1
1
1
1
1
1
1
1
1
1
1
1
1
1
1.00004
1.00123
1.01287
1.05715
1.1686
1.27921
1.36394
1.38269
1.39479
1.40104
1.40266
1.40592
1.40592
1.40582
1.4064
1.40733
1.40828
1.40948
1.41038
1.41063
1.41074
1.41074
1.41084
1.41111
1.41164
1.41252
1.41338
1.41386
1.41418
1.41434
1.41428
1.41408
1.41404
1.41416
1.4145
1.41497
1.41552
1.41598
1.41613
1.41612
1.41614
1.4161
1.41591
1.41571
1.41568
1.41567
1.41562
1.41559
1.41573
1.41599
1.41614
1.41626
1.41633
1.41634
1.41626
1.41614
1.41604
1.41595
1.41582
1.41505
1
1
1
1
1
1
1
1
1
1
1
1
1
1
1
1
1
1
1
1
1
1
1.00006
1.00108
1.01515
1.06349
1.16985
1.27733
1.35915
1.39142
1.39945
1.40737
1.40691
1.40584
1.40598
1.40584
1.40622
1.40724
1.40801
1.40828
1.40861
1.40863
1.4086
1.40878
1.40936
1.41036
1.41118
1.41156
1.41189
1.41201
1.41193
1.41173
1.41171
1.41193
1.4124
1.41304
1.41379
1.41442
1.41471
1.41482
1.41493
1.41493
1.41478
1.41469
1.41477
1.4149
1.41503
1.41517
1.41534
1.4155
1.41571
1.41585
1.41589
1.41593
1.41599
1.416
1.41597
1.41589
1.41574
1.41493
1
1
1
1
1
1
1
1
1
1
1
1
1
1
1
1
1
1
1
1
1
1
1
1
1.00011
1.00143
1.01506
1.07325
1.17455
1.27869
1.35807
1.39345
1.40434
1.40786
1.40867
1.40817
1.40822
1.40867
1.40892
1.40905
1.40896
1.40863
1.40832
1.4083
1.40862
1.40965
1.41024
1.41034
1.41035
1.41022
1.40991
1.40974
1.40979
1.41005
1.41053
1.4112
1.41192
1.41249
1.41287
1.41312
1.41331
1.41336
1.41323
1.41314
1.41327
1.41354
1.41387
1.41431
1.41465
1.41483
1.41495
1.41504
1.41513
1.41522
1.41535
1.4156
1.41564
1.4156
1.41546
1.41469
1
1
1
1
1
1
1
1
1
1
1
1
1
1
1
1
1
1
1
1
1
1
1
1
1
1
1.00012
1.00204
1.016
1.08627
1.19558
1.29216
1.35312
1.39044
1.40158
1.40428
1.4046
1.4071
1.40766
1.40732
1.40687
1.40682
1.40689
1.40701
1.40752
1.40841
1.40861
1.40867
1.40863
1.40834
1.40798
1.40793
1.40809
1.40849
1.40904
1.40969
1.41024
1.41056
1.41085
1.41114
1.41141
1.41162
1.41161
1.41151
1.4116
1.4119
1.41234
1.41294
1.41343
1.41378
1.41399
1.41395
1.41394
1.41407
1.41433
1.41474
1.41502
1.415
1.41489
1.41416
1
1
1
1
1
1
1
1
1
1
1
1
1
1
1
1
1
1
1
1
1
1
1
1
1
1
1
1
1.00014
1.00342
1.02191
1.09915
1.21885
1.32353
1.36307
1.38266
1.39118
1.39911
1.40232
1.40187
1.40201
1.40264
1.40332
1.40407
1.40518
1.40633
1.40684
1.40696
1.40688
1.40643
1.40601
1.40608
1.40643
1.40704
1.40765
1.40821
1.40855
1.40863
1.40881
1.40911
1.40949
1.40987
1.41001
1.40995
1.40994
1.41017
1.41061
1.41119
1.41179
1.41231
1.41268
1.41273
1.4126
1.41263
1.4129
1.4134
1.41401
1.41411
1.41406
1.41342
1
1
1
1
1
1
1
1
1
1
1
1
1
1
1
1
1
1
1
1
1
1
1
1
1
1
1
1
1
1.00001
1.00025
1.00537
1.03422
1.12151
1.24155
1.34598
1.38485
1.39335
1.39914
1.39976
1.40114
1.4018
1.4018
1.40227
1.40342
1.40478
1.40556
1.4056
1.40547
1.40501
1.40453
1.4046
1.405
1.40582
1.40674
1.4072
1.40721
1.40715
1.40721
1.40745
1.40786
1.40831
1.40861
1.40863
1.40858
1.40863
1.40891
1.40937
1.40999
1.41064
1.41113
1.41133
1.41126
1.41114
1.4113
1.41178
1.4125
1.41286
1.41282
1.41234
1
1
1
1
1
1
1
1
1
1
1
1
1
1
1
1
1
1
1
1
1
1
1
1
1
1
1
1
1
1
1
1.00003
1.00058
1.00826
1.0524
1.15549
1.27391
1.35533
1.3946
1.40303
1.40525
1.40699
1.40613
1.40521
1.40523
1.40592
1.40666
1.40667
1.4063
1.40543
1.40438
1.40411
1.40432
1.40508
1.40623
1.40675
1.40674
1.40653
1.4063
1.40634
1.40655
1.40699
1.40742
1.40758
1.40759
1.40754
1.40758
1.40783
1.40835
1.40903
1.40962
1.40995
1.40995
1.40973
1.40972
1.41008
1.41076
1.41131
1.41132
1.41097
1
1
1
1
1
1
1
1
1
1
1
1
1
1
1
1
1
1
1
1
1
1
1
1
1
1
1
1
1
1
1
1
1
1.00007
1.00138
1.01449
1.08393
1.19364
1.30286
1.36194
1.39335
1.40579
1.40559
1.40572
1.40594
1.4058
1.40603
1.40614
1.4061
1.40564
1.40453
1.40389
1.40406
1.40479
1.40596
1.40657
1.40661
1.40639
1.40575
1.40543
1.40554
1.40599
1.40648
1.40678
1.40686
1.4068
1.40665
1.40668
1.40696
1.40751
1.40812
1.40856
1.40867
1.40856
1.4084
1.40852
1.40905
1.40958
1.4097
1.40943
1
1
1
1
1
1
1
1
1
1
1
1
1
1
1
1
1
1
1
1
1
1
1
1
1
1
1
1
1
1
1
1
1
1
1
1.00018
1.00368
1.0273
1.11842
1.25423
1.33605
1.37968
1.39313
1.39737
1.40011
1.40165
1.4027
1.40345
1.40426
1.4043
1.40373
1.40303
1.4032
1.40389
1.40503
1.40604
1.40626
1.40615
1.40549
1.40474
1.40465
1.4049
1.40554
1.40605
1.4062
1.4062
1.40606
1.40589
1.40596
1.4063
1.40684
1.40737
1.40763
1.40759
1.40742
1.40733
1.40754
1.40792
1.40811
1.40786
1
1
1
1
1
1
1
1
1
1
1
1
1
1
1
1
1
1
1
1
1
1
1
1
1
1
1
1
1
1
1
1
1
1
1
1
1.00002
1.00058
1.00893
1.0599
1.17171
1.29398
1.3824
1.39358
1.39845
1.40001
1.4011
1.40264
1.40377
1.4037
1.40313
1.40278
1.40292
1.40344
1.40416
1.40514
1.40593
1.40602
1.4057
1.40471
1.40408
1.40412
1.40448
1.40515
1.40568
1.40579
1.40578
1.40559
1.40543
1.40554
1.40595
1.40643
1.40667
1.40672
1.40668
1.40656
1.40648
1.40658
1.40673
1.40646
1
1
1
1
1
1
1
1
1
1
1
1
1
1
1
1
1
1
1
1
1
1
1
1
1
1
1
1
1
1
1
1
1
1
1
1
1
1
1.00009
1.00215
1.02405
1.09714
1.24397
1.34046
1.3886
1.40435
1.40518
1.40545
1.40674
1.40703
1.40629
1.40537
1.40453
1.40397
1.40408
1.40466
1.40579
1.40629
1.40618
1.40534
1.40408
1.40376
1.40387
1.40439
1.40523
1.40565
1.4057
1.40563
1.40526
1.40506
1.40516
1.40542
1.40576
1.40598
1.40607
1.40606
1.40593
1.40578
1.40568
1.40537
1
1
1
1
1
1
1
1
1
1
1
1
1
1
1
1
1
1
1
1
1
1
1
1
1
1
1
1
1
1
1
1
1
1
1
1
1
1
1
1.00001
1.00048
1.00629
1.06043
1.17895
1.29184
1.3679
1.38653
1.399
1.40555
1.40623
1.40668
1.40668
1.40573
1.404
1.40383
1.40407
1.40509
1.40612
1.40615
1.40568
1.40454
1.40365
1.40363
1.40398
1.40494
1.40555
1.40564
1.40564
1.40538
1.40485
1.40467
1.40479
1.40508
1.40539
1.40558
1.40572
1.40574
1.40563
1.40526
1.4049
1
1
1
1
1
1
1
1
1
1
1
1
1
1
1
1
1
1
1
1
1
1
1
1
1
1
1
1
1
1
1
1
1
1
1
1
1
1
1
1
1
1.00007
1.00256
1.02506
1.10494
1.25331
1.35087
1.3798
1.39537
1.4015
1.40199
1.40355
1.4039
1.40317
1.40306
1.40323
1.40385
1.40471
1.40549
1.40556
1.40517
1.40427
1.40378
1.40387
1.40428
1.40509
1.40564
1.40568
1.40555
1.40509
1.40453
1.40446
1.40457
1.40474
1.40512
1.40541
1.40556
1.40552
1.40517
1.40613
1
1
1
1
1
1
1
1
1
1
1
1
1
1
1
1
1
1
1
1
1
1
1
1
1
1
1
1
1
1
1
1
1
1
1
1
1
1
1
1
1
1
1.00002
1.00055
1.00855
1.06154
1.20719
1.31713
1.38286
1.40007
1.40186
1.40458
1.40488
1.40537
1.40508
1.40448
1.40446
1.40454
1.4047
1.40541
1.4058
1.40559
1.40476
1.40409
1.40412
1.40438
1.40508
1.40555
1.40557
1.40538
1.40493
1.40445
1.40434
1.40443
1.40463
1.40507
1.40541
1.40534
1.40507
1.41488
1
1
1
1
1
1
1
1
1
1
1
1
1
1
1
1
1
1
1
1
1
1
1
1
1
1
1
1
1
1
1
1
1
1
1
1
1
1
1
1
1
1
1
1
1.00012
1.00308
1.04299
1.13903
1.27675
1.36039
1.39088
1.40705
1.40857
1.40861
1.40831
1.40716
1.40565
1.40449
1.40402
1.40467
1.40605
1.4062
1.40597
1.40495
1.40432
1.40437
1.40457
1.40515
1.40546
1.40548
1.40527
1.40482
1.40447
1.40439
1.40449
1.40483
1.40525
1.40523
1.40533
1.45294
1
1
1
1
1
1
1
1
1
1
1
1
1
1
1
1
1
1
1
1
1
1
1
1
1
1
1
1
1
1
1
1
1
1
1
1
1
1
1
1
1
1
1
1
1
1.00003
1.00159
1.01591
1.08958
1.25259
1.33789
1.38401
1.40085
1.40479
1.40601
1.40611
1.40505
1.40326
1.40244
1.40313
1.40528
1.40667
1.40674
1.40639
1.40554
1.40476
1.40454
1.40458
1.40487
1.40514
1.40518
1.40503
1.4048
1.40468
1.40465
1.40468
1.40483
1.40507
1.40919
1.5556
1
1
1
1
1
1
1
1
1
1
1
1
1
1
1
1
1
1
1
1
1
1
1
1
1
1
1
1
1
1
1
1
1
1
1
1
1
1
1
1
1
1
1
1
1
1
1.00001
1.00036
1.00668
1.06789
1.20456
1.32083
1.38866
1.39689
1.40286
1.40431
1.40374
1.40221
1.40199
1.40306
1.40454
1.40566
1.40664
1.40715
1.40702
1.40623
1.40496
1.40418
1.40411
1.40427
1.40454
1.40477
1.40489
1.40491
1.40484
1.40471
1.40477
1.40859
1.45457
1.68755
1
1
1
1
1
1
1
1
1
1
1
1
1
1
1
1
1
1
1
1
1
1
1
1
1
1
1
1
1
1
1
1
1
1
1
1
1
1
1
1
1
1
1
1
1
1
1
1
1.00012
1.00422
1.04515
1.14397
1.30131
1.36813
1.40029
1.40975
1.4094
1.40698
1.40607
1.40534
1.40501
1.40505
1.40539
1.40681
1.40712
1.40677
1.40573
1.40456
1.40408
1.40401
1.40403
1.40425
1.40465
1.40487
1.40484
1.40486
1.40767
1.45089
1.6065
1.77638
1
1
1
1
1
1
1
1
1
1
1
1
1
1
1
1
1
1
1
1
1
1
1
1
1
1
1
1
1
1
1
1
1
1
1
1
1
1
1
1
1
1
1
1
1
1
1
1
1
1.00006
1.00194
1.01987
1.12329
1.28159
1.35347
1.39797
1.4059
1.40738
1.40593
1.40545
1.40474
1.40413
1.40427
1.40529
1.4063
1.4064
1.40621
1.40548
1.40477
1.40425
1.40415
1.40427
1.40445
1.40449
1.40467
1.40701
1.44723
1.59976
1.75043
1.80166
1
1
1
1
1
1
1
1
1
1
1
1
1
1
1
1
1
1
1
1
1
1
1
1
1
1
1
1
1
1
1
1
1
1
1
1
1
1
1
1
1
1
1
1
1
1
1
1
1
1
1.00001
1.00071
1.01398
1.1109
1.23995
1.35752
1.39311
1.39732
1.40208
1.4035
1.40468
1.40529
1.40482
1.40486
1.40518
1.4053
1.40552
1.40564
1.40536
1.40503
1.40468
1.4045
1.40458
1.40461
1.40628
1.44055
1.59067
1.7549
1.81639
1.81511
1
1
1
1
1
1
1
1
1
1
1
1
1
1
1
1
1
1
1
1
1
1
1
1
1
1
1
1
1
1
1
1
1
1
1
1
1
1
1
1
1
1
1
1
1
1
1
1
1
1
1
1.00001
1.00044
1.01226
1.07164
1.2079
1.34594
1.38538
1.40412
1.40943
1.40913
1.40873
1.40857
1.4074
1.40537
1.40459
1.40448
1.40494
1.40531
1.40537
1.40533
1.40515
1.40485
1.40616
1.43602
1.58205
1.75039
1.80309
1.82723
1.82156
1
1
1
1
1
1
1
1
1
1
1
1
1
1
1
1
1
1
1
1
1
1
1
1
1
1
1
1
1
1
1
1
1
1
1
1
1
1
1
1
1
1
1
1
1
1
1
1
1
1
1
1
1
1.00031
1.00541
1.04922
1.21209
1.32995
1.3799
1.40274
1.40735
1.40693
1.4076
1.40775
1.40722
1.40618
1.40516
1.40469
1.40461
1.40474
1.40511
1.40555
1.40696
1.43371
1.57406
1.74411
1.82109
1.82515
1.82825
1.82361
1
1
1
1
1
1
1
1
1
1
1
1
1
1
1
1
1
1
1
1
1
1
1
1
1
1
1
1
1
1
1
1
1
1
1
1
1
1
1
1
1
1
1
1
1
1
1
1
1
1
1
1
1
1
1.00011
1.00344
1.05042
1.19735
1.31775
1.39037
1.39761
1.39905
1.4042
1.40593
1.40774
1.40716
1.40599
1.40528
1.40427
1.40403
1.40455
1.40607
1.432
1.56857
1.74994
1.80145
1.8287
1.83131
1.83017
1.82462
1
1
1
1
1
1
1
1
1
1
1
1
1
1
1
1
1
1
1
1
1
1
1
1
1
1
1
1
1
1
1
1
1
1
1
1
1
1
1
1
1
1
1
1
1
1
1
1
1
1
1
1
1
1
1
1.00008
1.00352
1.04835
1.15423
1.31557
1.38089
1.3988
1.40695
1.40775
1.40776
1.40743
1.40756
1.4072
1.40524
1.40395
1.40495
1.43163
1.57187
1.74331
1.82829
1.83003
1.83193
1.83175
1.83035
1.82485
1
1
1
1
1
1
1
1
1
1
1
1
1
1
1
1
1
1
1
1
1
1
1
1
1
1
1
1
1
1
1
1
1
1
1
1
1
1
1
1
1
1
1
1
1
1
1
1
1
1
1
1
1
1
1
1
1.00008
1.00295
1.02876
1.1444
1.31814
1.37586
1.3963
1.40468
1.40487
1.40326
1.40411
1.40536
1.40601
1.40757
1.43834
1.58213
1.76319
1.81102
1.83476
1.83337
1.83151
1.83137
1.82974
1.82422
1
1
1
1
1
1
1
1
1
1
1
1
1
1
1
1
1
1
1
1
1
1
1
1
1
1
1
1
1
1
1
1
1
1
1
1
1
1
1
1
1
1
1
1
1
1
1
1
1
1
1
1
1
1
1
1
1
1.00004
1.00162
1.02376
1.16818
1.3104
1.38148
1.40443
1.40398
1.40204
1.40229
1.40412
1.40668
1.44384
1.59873
1.76287
1.84254
1.84047
1.83769
1.83138
1.83001
1.82969
1.82874
1.82284
1
1
1
1
1
1
1
1
1
1
1
1
1
1
1
1
1
1
1
1
1
1
1
1
1
1
1
1
1
1
1
1
1
1
1
1
1
1
1
1
1
1
1
1
1
1
1
1
1
1
1
1
1
1
1
1
1
1
1.00003
1.00158
1.03693
1.15957
1.29376
1.38063
1.40656
1.40597
1.40327
1.40565
1.45189
1.6047
1.77715
1.81755
1.83837
1.8384
1.83348
1.82744
1.82617
1.8258
1.82512
1.81937
1
1
1
1
1
1
1
1
1
1
1
1
1
1
1
1
1
1
1
1
1
1
1
1
1
1
1
1
1
1
1
1
1
1
1
1
1
1
1
1
1
1
1
1
1
1
1
1
1
1
1
1
1
1
1
1
1
1
1
1.00005
1.00254
1.03346
1.13635
1.29376
1.38284
1.3961
1.41203
1.47
1.62688
1.76391
1.83728
1.83686
1.83426
1.83212
1.82661
1.82164
1.82085
1.82054
1.81991
1.81451
1
1
1
1
1
1
1
1
1
1
1
1
1
1
1
1
1
1
1
1
1
1
1
1
1
1
1
1
1
1
1
1
1
1
1
1
1
1
1
1
1
1
1
1
1
1
1
1
1
1
1
1
1
1
1
1
1
1
1
1
1.00006
1.00209
1.02249
1.14338
1.32
1.40694
1.50127
1.62873
1.73285
1.79724
1.82757
1.82993
1.82544
1.8236
1.82113
1.81826
1.81715
1.81632
1.81583
1.81081
1
1
1
1
1
1
1
1
1
1
1
1
1
1
1
1
1
1
1
1
1
1
1
1
1
1
1
1
1
1
1
1
1
1
1
1
1
1
1
1
1
1
1
1
1
1
1
1
1
1
1
1
1
1
1
1
1
1
1
1
1
1.00004
1.00144
1.03465
1.21661
1.4607
1.65352
1.80692
1.86841
1.84776
1.82621
1.82179
1.81763
1.81853
1.81816
1.81762
1.81668
1.81517
1.81445
1.80951
)
;

boundaryField
{
    inlet
    {
        type            fixedValue;
        value           uniform 1;
    }
    outlet
    {
        type            zeroGradient;
    }
    bottom
    {
        type            symmetryPlane;
    }
    top
    {
        type            symmetryPlane;
    }
    obstacle
    {
        type            zeroGradient;
    }
    defaultFaces
    {
        type            empty;
    }
}


// ************************************************************************* //
