/*--------------------------------*- C++ -*----------------------------------*\
| =========                 |                                                 |
| \\      /  F ield         | OpenFOAM: The Open Source CFD Toolbox           |
|  \\    /   O peration     | Version:  2206                                  |
|   \\  /    A nd           | Website:  www.openfoam.com                      |
|    \\/     M anipulation  |                                                 |
\*---------------------------------------------------------------------------*/
FoamFile
{
    version     2.0;
    format      ascii;
    arch        "LSB;label=32;scalar=64";
    class       volVectorField;
    location    "0.2";
    object      U;
}
// * * * * * * * * * * * * * * * * * * * * * * * * * * * * * * * * * * * * * //

dimensions      [0 1 -1 0 0 0 0];

internalField   nonuniform List<vector> 
4800
(
(3.12121 -3.52728e-15 0)
(3.12121 -5.08054e-14 0)
(3.12121 -3.70531e-14 0)
(3.12121 -3.36391e-14 0)
(3.12121 -2.88416e-14 0)
(3.12121 -1.98068e-14 0)
(3.12121 2.95184e-14 0)
(3.12121 4.99453e-14 0)
(3.12121 -2.45042e-14 0)
(3.12121 -9.97706e-14 0)
(3.12121 -1.31923e-13 0)
(3.12121 -1.03275e-13 0)
(3.12121 -5.55929e-14 0)
(3.12121 -6.3871e-14 0)
(3.12121 -7.46762e-14 0)
(3.12121 -2.8665e-14 0)
(3.12121 2.3434e-14 0)
(3.12121 3.99436e-14 0)
(3.12121 4.66614e-14 0)
(3.12121 -5.62097e-15 0)
(3.12121 4.8505e-14 0)
(3.12121 1.49209e-13 0)
(3.12121 1.23171e-13 0)
(3.12121 1.5338e-13 0)
(3.12121 9.92271e-14 0)
(3.12121 4.70315e-14 0)
(3.12121 -4.18972e-14 0)
(3.12121 -4.93419e-15 0)
(3.12121 8.41512e-14 0)
(3.12121 2.92117e-14 0)
(3.12121 -1.30222e-14 0)
(3.12121 -6.40777e-14 0)
(3.12121 -1.00057e-13 0)
(3.12121 -6.90853e-14 0)
(3.12121 -9.35161e-15 0)
(3.12121 2.85449e-14 0)
(3.12121 -2.99052e-15 0)
(3.12121 -2.95084e-14 0)
(3.12121 -6.46812e-14 0)
(3.12121 -6.75583e-14 0)
(3.12121 -6.89786e-15 0)
(3.12121 -4.14438e-14 0)
(3.12121 -1.00617e-14 0)
(3.12121 -3.31491e-14 0)
(3.12121 -1.19104e-13 0)
(3.12121 -6.5448e-14 0)
(3.12121 3.15021e-14 0)
(3.12121 5.07321e-14 0)
(3.12121 -4.30074e-15 0)
(3.12121 -4.52211e-14 0)
(3.12121 -8.59115e-14 0)
(3.12121 -1.01598e-13 0)
(3.12121 -5.64264e-14 0)
(3.12121 -4.44343e-14 0)
(3.12121 -3.77832e-14 0)
(3.12121 -9.89504e-15 0)
(3.12121 5.50262e-14 0)
(3.12121 9.4573e-14 0)
(3.12121 9.79669e-14 0)
(3.12121 -2.43842e-14 0)
(3.12121 -5.16089e-15 0)
(3.12121 1.1319e-13 0)
(3.12121 1.25212e-13 0)
(3.12121 1.46509e-13 0)
(3.12121 1.10906e-13 0)
(3.12121 2.58245e-14 0)
(3.12121 -3.56995e-14 0)
(3.12121 5.66431e-14 0)
(3.12121 8.34411e-14 0)
(3.12121 -2.08369e-15 0)
(3.12121 -1.90533e-14 0)
(3.12121 -1.22468e-13 0)
(3.12121 -1.64272e-13 0)
(3.12121 -1.23755e-13 0)
(3.12121 -2.07169e-14 0)
(3.12121 6.12339e-14 0)
(3.12121 -3.98069e-15 0)
(3.12121 -5.64698e-14 0)
(3.12121 -9.91971e-14 0)
(3.12121 -1.77943e-13 0)
(3.12121 -8.69483e-15 0)
(3.12121 -5.60764e-15 0)
(3.12121 -1.22221e-14 0)
(3.12121 -8.37511e-14 0)
(3.12121 -1.23525e-13 0)
(3.12121 -1.15243e-13 0)
(3.12121 -8.87053e-14 0)
(3.12121 -8.32444e-14 0)
(3.12121 -6.48045e-14 0)
(3.12121 -5.20623e-14 0)
(3.12121 -3.20189e-14 0)
(3.12121 -5.91502e-14 0)
(3.12121 -1.33023e-14 0)
(3.12121 5.75066e-14 0)
(3.12121 5.96903e-14 0)
(3.12121 2.05035e-14 0)
(3.12121 -9.60166e-16 0)
(3.12121 1.64228e-14 0)
(3.12121 -2.39108e-14 0)
(3.12121 -5.77766e-15 0)
(3.12121 1.77397e-14 0)
(3.12121 1.26522e-14 0)
(3.12121 6.86219e-14 0)
(3.12121 9.41829e-14 0)
(3.12121 7.3356e-14 0)
(3.12121 8.40612e-14 0)
(3.12121 9.05423e-14 0)
(3.12121 6.11239e-14 0)
(3.12121 -9.75135e-14 0)
(3.12121 -1.43271e-13 0)
(3.12121 -1.46665e-13 0)
(3.12121 -1.67729e-13 0)
(3.12121 -2.11256e-13 0)
(3.12121 -1.22134e-13 0)
(3.12121 -6.25341e-14 0)
(3.12121 -6.70783e-14 0)
(3.12121 -5.18956e-14 0)
(3.12121 -8.20742e-14 0)
(3.12121 -6.99821e-14 0)
(3.12121 -1.11245e-13 0)
(3.12121 1.81065e-14 0)
(3.12121 2.27473e-14 0)
(3.12121 -2.29273e-14 0)
(3.12121 -5.01253e-14 0)
(3.12121 -5.30758e-15 0)
(3.12121 -8.14241e-14 0)
(3.12121 -1.77081e-13 0)
(3.12121 -1.72203e-13 0)
(3.12121 -1.36003e-13 0)
(3.12121 -9.83703e-14 0)
(3.12121 -8.8582e-14 0)
(3.12121 -4.05303e-14 0)
(3.12121 -5.81434e-14 0)
(3.12121 -6.34376e-14 0)
(3.12121 -7.78701e-14 0)
(3.12121 2.86483e-14 0)
(3.12121 2.91884e-14 0)
(3.12121 -1.08485e-14 0)
(3.12121 -1.18587e-14 0)
(3.12121 3.75998e-14 0)
(3.12121 5.69765e-14 0)
(3.12121 -4.72148e-14 0)
(3.12121 -4.0397e-14 0)
(3.12121 8.27476e-15 0)
(3.12121 6.40677e-14 0)
(3.12121 5.06387e-14 0)
(3.12121 4.34308e-14 0)
(3.12121 -4.38142e-14 0)
(3.12121 -1.22668e-13 0)
(3.12121 -2.26062e-13 0)
(3.12121 -2.5167e-13 0)
(3.12121 -2.14324e-13 0)
(3.12121 -1.91493e-13 0)
(3.12121 -9.15992e-14 0)
(3.12121 -8.64816e-14 0)
(3.12121 -1.141e-13 0)
(3.12121 -7.54764e-14 0)
(3.12121 -7.12323e-14 0)
(3.12121 -1.03071e-13 0)
(3.12121 -7.72216e-14 0)
(3.12121 1.80731e-14 0)
(3.12121 2.64046e-14 0)
(3.12121 5.83534e-14 0)
(3.12121 1.22801e-13 0)
(3.12121 9.49364e-14 0)
(3.12121 -1.49693e-14 0)
(3.12121 -1.84745e-13 0)
(3.12121 -1.60081e-13 0)
(3.12121 -1.70763e-14 0)
(3.12121 3.72498e-14 0)
(3.12121 -3.92401e-15 0)
(3.12121 -1.33723e-14 0)
(3.12121 -9.76169e-15 0)
(3.12121 -3.42693e-14 0)
(3.12121 2.08203e-14 0)
(3.12121 1.49893e-13 0)
(3.12121 1.79414e-13 0)
(3.12121 1.31826e-13 0)
(3.12121 9.38629e-14 0)
(3.12121 3.99169e-14 0)
(3.12121 -4.39576e-14 0)
(3.12121 -5.99804e-14 0)
(3.12121 -2.3084e-14 0)
(3.12121 -5.49562e-14 0)
(3.12121 -1.07389e-13 0)
(3.12121 -8.63416e-14 0)
(3.12121 -1.1701e-13 0)
(3.12121 -1.10346e-13 0)
(3.12121 -9.16792e-14 0)
(3.12121 -1.149e-13 0)
(3.12121 -1.65779e-13 0)
(3.12121 -1.60334e-13 0)
(3.12121 -3.96535e-14 0)
(3.12121 -3.39859e-14 0)
(3.12121 -5.43494e-14 0)
(3.12121 -6.73983e-14 0)
(3.12121 -6.26375e-14 0)
(3.12121 -1.01448e-13 0)
(3.12121 -1.53353e-13 0)
(3.12121 -1.1238e-13 0)
(3.12121 -4.66281e-14 0)
(3.12121 -8.25809e-15 0)
(3.12121 1.71763e-14 0)
(3.12121 8.03305e-14 0)
(3.12121 5.24024e-14 0)
(3.12121 2.05936e-14 0)
(3.12121 -2.16704e-15 0)
(3.12121 1.00617e-14 0)
(3.12121 3.99102e-14 0)
(3.12121 8.13641e-14 0)
(3.12121 9.03589e-14 0)
(3.12121 4.8215e-14 0)
(3.12121 1.08999e-13 0)
(3.12121 9.31227e-14 0)
(3.12121 1.05968e-13 0)
(3.12121 1.42685e-13 0)
(3.12121 1.31746e-13 0)
(3.12121 9.38329e-14 0)
(3.12121 9.95772e-14 0)
(3.12121 5.30392e-14 0)
(3.12121 -3.43726e-14 0)
(3.12121 1.59227e-14 0)
(3.12121 2.36474e-14 0)
(3.12121 1.50893e-14 0)
(3.12121 -7.04188e-14 0)
(3.12121 -6.65048e-14 0)
(3.12121 -1.3631e-13 0)
(3.12121 -1.62691e-13 0)
(3.12121 -1.34887e-13 0)
(3.12121 -1.37427e-13 0)
(3.12121 -1.08845e-13 0)
(3.12121 -4.76482e-14 0)
(3.12121 -2.82015e-14 0)
(3.12121 -1.25452e-13 0)
(3.12121 -1.29712e-13 0)
(3.12121 -9.10724e-14 0)
(3.12121 -4.69181e-14 0)
(3.12121 -4.6448e-14 0)
(3.12121 -1.37957e-14 0)
(3.12121 2.66805e-14 0)
(3.12121 -9.19159e-15 0)
(3.12121 1.70096e-14 0)
(3.12121 3.97069e-15 0)
(3.12121 -3.28523e-14 0)
(3.12121 -4.31241e-14 0)
(3.12121 3.80732e-15 0)
(3.12121 4.76616e-14 0)
(3.12121 -1.08919e-14 0)
(3.12121 -8.1224e-14 0)
(3.12121 -3.81566e-14 0)
(3.12121 1.30623e-14 0)
(3.12121 -7.66799e-16 0)
(3.12121 -3.74531e-14 0)
(3.12121 -4.08104e-14 0)
(3.12121 8.77485e-15 0)
(3.12121 4.08737e-15 0)
(3.12121 -8.61115e-14 0)
(3.12121 -1.09789e-13 0)
(3.12121 -1.04408e-13 0)
(3.12121 -6.64548e-14 0)
(3.12121 6.31609e-14 0)
(3.12121 8.1224e-14 0)
(3.12121 5.65864e-14 0)
(3.12121 8.88487e-15 0)
(3.12121 2.19004e-14 0)
(3.12121 -7.01221e-14 0)
(3.12121 -8.19975e-14 0)
(3.12121 -9.30027e-14 0)
(3.12121 -9.671e-14 0)
(3.12121 -3.15288e-14 0)
(3.12121 -1.62395e-14 0)
(3.12121 1.35557e-14 0)
(3.12121 -3.89701e-14 0)
(3.12121 -7.18457e-14 0)
(3.12121 -5.15989e-14 0)
(3.12121 -3.5006e-15 0)
(3.12121 -6.34776e-15 0)
(3.12121 2.8785e-14 0)
(3.12121 6.9502e-14 0)
(3.12121 8.77849e-14 0)
(3.12121 5.78066e-14 0)
(3.12121 5.29791e-14 0)
(3.12121 5.31859e-14 0)
(3.12121 -3.4646e-14 0)
(3.12121 -3.79332e-14 0)
(3.12121 2.1507e-14 0)
(3.12121 6.35043e-14 0)
(3.12121 1.23955e-14 0)
(3.12121 7.69466e-15 0)
(3.12121 -2.19971e-14 0)
(3.12121 -6.70216e-14 0)
(3.12121 -4.07304e-14 0)
(3.12121 -6.50879e-14 0)
(3.12121 -4.29841e-14 0)
(3.12121 -2.49576e-14 0)
(3.12121 -1.12186e-14 0)
(3.12121 -1.06908e-13 0)
(3.12121 -1.08299e-13 0)
(3.12121 -9.95172e-14 0)
(3.12121 -3.75098e-14 0)
(3.12121 -6.29775e-15 0)
(3.12121 -9.91505e-15 0)
(3.12121 2.07336e-14 0)
(3.12121 4.29508e-14 0)
(3.12121 1.1335e-13 0)
(3.12121 5.50362e-14 0)
(3.12121 1.98468e-14 0)
(3.12121 1.1582e-14 0)
(3.12121 -2.90784e-14 0)
(3.12121 -2.11837e-14 0)
(3.12121 -1.26022e-15 0)
(3.12121 -2.66479e-14 0)
(3.12121 -3.12854e-14 0)
(3.12121 -2.08036e-15 0)
(3.12121 -1.45992e-14 0)
(3.12121 -6.3501e-14 0)
(3.12121 -2.76981e-14 0)
(3.12121 2.60412e-14 0)
(3.12121 1.49592e-14 0)
(3.12121 3.3454e-14 0)
(3.12121 -1.27489e-14 0)
(3.12121 -4.49978e-14 0)
(3.12121 -3.87167e-14 0)
(3.12121 -3.52661e-14 0)
(3.12121 -4.6348e-14 0)
(3.12121 -7.06789e-16 0)
(3.12121 6.04271e-14 0)
(3.12121 9.62766e-14 0)
(3.12121 1.04961e-13 0)
(3.12121 5.89002e-14 0)
(3.12121 1.5156e-14 0)
(3.12121 1.67896e-14 0)
(3.12121 8.57615e-14 0)
(3.12121 7.9267e-14 0)
(3.12121 8.10607e-14 0)
(3.12121 9.96372e-14 0)
(3.12121 6.70783e-14 0)
(3.12121 -2.99652e-14 0)
(3.12121 -1.95834e-14 0)
(3.12121 7.73467e-16 0)
(3.12121 5.88835e-14 0)
(3.12121 5.09521e-14 0)
(3.12121 7.1619e-14 0)
(3.12121 7.65666e-14 0)
(3.12121 -5.52095e-15 0)
(3.12121 -2.03002e-14 0)
(3.12121 -1.65729e-14 0)
(3.12121 -4.73748e-14 0)
(3.12121 -2.55011e-14 0)
(3.12121 -7.04722e-14 0)
(3.12121 -5.67565e-14 0)
(3.12121 -8.5218e-14 0)
(3.12121 -1.31736e-13 0)
(3.12121 -1.50813e-13 0)
(3.12121 -1.78407e-13 0)
(3.12121 -1.67012e-13 0)
(3.12121 -6.70682e-14 0)
(3.12121 -1.31623e-14 0)
(3.12121 8.16874e-14 0)
(3.12121 9.5117e-14 0)
(3.12121 -1.04985e-14 0)
(3.12121 -5.30858e-14 0)
(3.12121 -8.13874e-14 0)
(3.12121 -3.31724e-15 0)
(3.12121 2.73247e-14 0)
(3.12121 1.86999e-14 0)
(3.12121 -2.45376e-15 0)
(3.12121 -1.38091e-14 0)
(3.12121 -4.81083e-14 0)
(3.12121 -2.84049e-14 0)
(3.12121 -6.59781e-15 0)
(3.12121 1.69929e-14 0)
(3.12121 8.25009e-14 0)
(3.12121 9.17058e-14 0)
(3.12121 8.41545e-14 0)
(3.12121 6.08172e-14 0)
(3.12121 1.28052e-13 0)
(3.12121 1.19257e-13 0)
(3.12121 8.21609e-14 0)
(3.12121 9.08557e-14 0)
(3.12121 8.52147e-14 0)
(3.12121 7.36627e-14 0)
(3.12121 5.95503e-14 0)
(3.12121 2.84382e-14 0)
(3.12121 2.01601e-14 0)
(3.12121 1.44692e-15 0)
(3.12121 -2.94918e-14 0)
(3.12121 -1.83998e-14 0)
(3.12121 -5.47094e-15 0)
(3.12121 -7.87103e-14 0)
(3.12121 -1.36687e-13 0)
(3.12121 -1.79531e-13 0)
(3.12121 -2.22712e-13 0)
(3.12121 -2.44576e-13 0)
(3.12121 -1.84455e-13 0)
(3.12121 -1.09472e-13 0)
(3.12121 -2.58678e-14 0)
(3.12121 -4.35075e-14 0)
(3.12121 -4.52545e-14 0)
(3.12121 -7.68655e-14 0)
(3.12121 3.24789e-14 0)
(3.12121 3.83566e-14 0)
(3.12121 1.19587e-14 0)
(3.12121 2.51377e-14 0)
(3.12121 8.16641e-14 0)
(3.12121 1.64745e-13 0)
(3.12121 1.1361e-13 0)
(3.12121 1.76497e-14 0)
(3.12121 -8.83853e-14 0)
(3.12121 -6.72283e-14 0)
(3.12121 2.73281e-14 0)
(3.12121 5.89668e-14 0)
(3.12121 -6.89452e-15 0)
(3.12121 3.00185e-14 0)
(3.12121 1.65995e-14 0)
(3.12121 4.72015e-14 0)
(3.12121 9.68967e-14 0)
(3.12121 1.61251e-13 0)
(3.12121 1.65245e-13 0)
(3.12121 1.42178e-13 0)
(3.12121 1.76831e-14 0)
(3.12121 -7.85002e-14 0)
(3.12121 -3.69464e-14 0)
(3.12121 -1.34023e-15 0)
(3.12121 -5.9777e-15 0)
(3.12121 -2.65312e-14 0)
(3.12121 1.67996e-14 0)
(3.12121 6.56013e-14 0)
(3.12121 4.27407e-14 0)
(3.12121 -9.37162e-15 0)
(3.12121 -9.42629e-14 0)
(3.12121 -7.84002e-14 0)
(3.12121 -3.32424e-14 0)
(3.12121 -4.83617e-14 0)
(3.12121 -2.98585e-14 0)
(3.12121 -5.811e-14 0)
(3.12121 -7.24859e-14 0)
(3.12121 -3.75898e-14 0)
(3.12121 -1.37087e-13 0)
(3.12121 -1.6305e-13 0)
(3.12121 -1.20354e-14 0)
(3.12121 -3.16188e-14 0)
(3.12121 -1.69829e-14 0)
(3.12121 -1.17087e-14 0)
(3.12121 -1.04785e-14 0)
(3.12121 -2.38041e-14 0)
(3.12121 1.62528e-14 0)
(3.12121 7.8907e-14 0)
(3.12121 3.22222e-14 0)
(3.12121 2.75614e-14 0)
(3.12121 2.89717e-14 0)
(3.12121 -6.87819e-14 0)
(3.12121 -1.86849e-13 0)
(3.12121 -1.48902e-13 0)
(3.12121 -1.00114e-13 0)
(3.12121 -4.8355e-14 0)
(3.12121 -6.08338e-14 0)
(3.12121 -2.62179e-14 0)
(3.12121 -6.54446e-15 0)
(3.12121 -4.88184e-14 0)
(3.12121 -4.99086e-14 0)
(3.12121 -3.78165e-14 0)
(3.12121 -6.40944e-14 0)
(3.12121 -1.33756e-13 0)
(3.12121 -1.63038e-13 0)
(3.12121 -1.15223e-13 0)
(3.12121 -8.80652e-14 0)
(3.12121 -9.2556e-14 0)
(3.12121 -8.93288e-14 0)
(3.12121 -1.10292e-13 0)
(3.12121 -1.61421e-13 0)
(3.12121 -6.69816e-14 0)
(3.12121 6.59114e-14 0)
(3.12121 8.4918e-14 0)
(3.12121 1.85032e-14 0)
(3.12121 4.85184e-14 0)
(3.12121 5.22057e-14 0)
(3.12121 4.87284e-14 0)
(3.12121 5.91369e-14 0)
(3.12121 3.12632e-14 0)
(3.12121 1.55694e-15 0)
(3.12121 9.60499e-15 0)
(3.12121 6.1944e-15 0)
(3.12121 6.63448e-15 0)
(3.12121 1.85365e-15 0)
(3.12121 -6.04538e-14 0)
(3.12121 -2.68413e-14 0)
(3.12121 3.24423e-14 0)
(3.12121 6.5438e-14 0)
(3.12121 6.25441e-14 0)
(3.12121 -1.5236e-15 0)
(3.12121 -1.05195e-13 0)
(3.12121 -1.59491e-13 0)
(3.12121 -1.77487e-13 0)
(3.12121 -1.46025e-13 0)
(3.12121 -1.14663e-13 0)
(3.12121 -1.18761e-13 0)
(3.12121 -1.26965e-13 0)
(3.12121 -1.37487e-13 0)
(3.12121 -1.30859e-13 0)
(3.12121 -1.47352e-13 0)
(3.12121 -1.03445e-13 0)
(3.12121 -1.23691e-13 0)
(3.12121 -1.30296e-13 0)
(3.12121 -1.44678e-13 0)
(3.12121 -4.72615e-14 0)
(3.12121 -7.44095e-14 0)
(3.12121 -5.97136e-14 0)
(3.12121 -8.00272e-14 0)
(3.12121 -1.19664e-13 0)
(3.12121 -1.1424e-13 0)
(3.12121 -7.19024e-14 0)
(3.12121 -1.79931e-14 0)
(3.12121 2.21938e-14 0)
(3.12121 5.15089e-14 0)
(3.12121 8.27343e-14 0)
(3.12121 1.5731e-13 0)
(3.12121 1.50439e-13 0)
(3.12121 1.48592e-13 0)
(3.12121 1.66025e-13 0)
(3.12121 3.55061e-15 0)
(3.12121 8.53447e-14 0)
(3.12121 7.75001e-14 0)
(3.12121 3.57095e-14 0)
(3.12121 2.45342e-14 0)
(3.12121 1.42491e-14 0)
(3.12121 -2.09369e-15 0)
(3.12121 -4.90851e-14 0)
(3.12121 -3.80432e-14 0)
(3.12121 -6.90119e-16 0)
(3.12121 -1.17987e-14 0)
(3.12121 -7.47862e-14 0)
(3.12121 -1.06832e-13 0)
(3.12121 -1.20714e-13 0)
(3.12121 -1.06838e-13 0)
(3.12121 -5.16489e-14 0)
(3.12121 -5.68498e-14 0)
(3.12121 -9.76469e-14 0)
(3.12121 -1.46382e-13 0)
(3.12121 -1.154e-13 0)
(3.12121 -5.74132e-14 0)
(3.12121 -6.5538e-14 0)
(3.12121 -4.64047e-14 0)
(3.12121 -2.53677e-14 0)
(3.12121 -1.88966e-14 0)
(3.12121 -1.99134e-14 0)
(3.12121 6.12439e-15 0)
(3.12121 -2.20271e-14 0)
(3.12121 -4.8365e-14 0)
(3.12121 2.5271e-15 0)
(3.12121 6.38544e-14 0)
(3.12121 -1.26789e-14 0)
(3.12121 -2.89717e-14 0)
(3.12121 5.74433e-15 0)
(3.12121 3.43959e-14 0)
(3.12121 3.25623e-14 0)
(3.12121 5.51795e-14 0)
(3.12121 1.24115e-13 0)
(3.12121 1.08849e-13 0)
(3.12121 1.72548e-13 0)
(3.12121 1.26655e-14 0)
(3.12121 -2.81049e-15 0)
(3.12121 1.10652e-14 0)
(3.12121 3.32824e-14 0)
(3.12121 1.3509e-14 0)
(3.12121 2.96718e-16 0)
(3.12121 -2.08269e-14 0)
(3.12121 -4.98686e-14 0)
(3.12121 -8.36444e-14 0)
(3.12121 -7.35894e-14 0)
(3.12121 -4.15272e-14 0)
(3.12121 -7.58464e-15 0)
(3.12121 3.841e-14 0)
(3.12121 3.01585e-14 0)
(3.12121 -2.09603e-14 0)
(3.12121 -9.46997e-14 0)
(3.12121 -1.30956e-13 0)
(3.12121 -1.48159e-13 0)
(3.12121 -1.21838e-13 0)
(3.12121 -1.38377e-13 0)
(3.12121 -5.39126e-14 0)
(3.12121 -9.95839e-15 0)
(3.12121 8.20542e-14 0)
(3.12121 7.98671e-14 0)
(3.12121 1.66819e-13 0)
(3.12121 1.35793e-13 0)
(3.12121 7.13357e-14 0)
(3.12121 -1.64862e-14 0)
(3.12121 -6.82585e-14 0)
(3.12121 -3.56662e-14 0)
(3.12121 -6.44445e-14 0)
(3.12121 -8.17841e-14 0)
(3.12121 2.88316e-14 0)
(3.12121 1.13483e-13 0)
(3.12121 1.20577e-13 0)
(3.12121 7.26525e-14 0)
(3.12121 -9.635e-16 0)
(3.12121 1.30156e-14 0)
(3.12121 4.10971e-14 0)
(3.12121 7.03397e-14 0)
(3.12121 3.27056e-15 0)
(3.12121 -4.73348e-14 0)
(3.12121 -4.27274e-14 0)
(3.12121 -2.92417e-14 0)
(3.12121 -1.64095e-14 0)
(3.12121 -5.27124e-14 0)
(3.12121 -4.04437e-14 0)
(3.12121 4.21639e-14 0)
(3.12121 3.14121e-14 0)
(3.12121 3.45993e-14 0)
(3.12121 9.80669e-14 0)
(3.12121 1.61518e-13 0)
(3.12121 2.37671e-13 0)
(3.12121 1.55557e-13 0)
(3.12121 4.50344e-14 0)
(3.12121 -1.06355e-13 0)
(3.12121 -1.41634e-13 0)
(3.12121 -1.45232e-13 0)
(3.12121 -1.43001e-13 0)
(3.12121 -1.85535e-13 0)
(3.12121 -1.59574e-13 0)
(3.12121 -1.1521e-13 0)
(3.12121 -7.70566e-14 0)
(3.12121 1.549e-13 0)
(3.12121 1.96937e-13 0)
(3.12121 1.65155e-13 0)
(3.12121 4.58646e-14 0)
(3.12121 5.14422e-15 0)
(3.12121 3.41859e-14 0)
(3.12121 5.4256e-14 0)
(3.12121 9.43996e-14 0)
(3.12121 1.85959e-13 0)
(3.12121 1.30406e-13 0)
(3.12121 4.57012e-14 0)
(3.12121 9.36228e-14 0)
(3.12121 9.2806e-14 0)
(3.12121 8.97588e-14 0)
(3.12121 2.96751e-14 0)
(3.12121 -3.41826e-14 0)
(3.12121 -5.15856e-14 0)
(3.12121 -4.20806e-14 0)
(3.12121 -7.56597e-14 0)
(3.12121 -7.42462e-14 0)
(3.12121 -9.52298e-14 0)
(3.12121 -7.26292e-14 0)
(3.12121 -1.3289e-14 0)
(3.12121 1.11486e-14 0)
(3.12121 3.79065e-14 0)
(3.12121 1.68449e-13 0)
(3.12121 1.83398e-13 0)
(3.12121 1.38417e-13 0)
(3.12121 1.02641e-13 0)
(3.12121 7.68766e-14 0)
(3.12121 -4.13271e-14 0)
(3.12121 -6.87819e-14 0)
(3.12121 -2.16637e-14 0)
(3.12121 -2.41408e-14 0)
(3.12121 -8.9002e-14 0)
(3.12121 -1.5563e-13 0)
(3.12121 -1.55724e-13 0)
(3.12121 -1.57077e-13 0)
(3.12121 -1.1769e-13 0)
(3.12121 -1.14957e-13 0)
(3.12121 -6.06105e-15 0)
(3.12121 1.05085e-14 0)
(3.12121 -4.90651e-14 0)
(3.12121 -6.33543e-14 0)
(3.12121 -2.72614e-14 0)
(3.12121 3.86267e-14 0)
(3.12121 5.45961e-14 0)
(3.12121 1.43615e-13 0)
(3.12121 1.60774e-13 0)
(3.12121 7.80668e-14 0)
(3.12121 7.77734e-14 0)
(3.12121 1.18914e-13 0)
(3.12121 8.03039e-14 0)
(3.12121 9.2916e-14 0)
(3.12121 3.77198e-14 0)
(3.12121 1.22121e-14 0)
(3.12121 3.25464e-14 0)
(3.12121 -2.07102e-14 0)
(3.12121 -1.53493e-14 0)
(3.12121 -5.72232e-14 0)
(3.12121 -5.9927e-14 0)
(3.12121 -5.2269e-14 0)
(3.12121 2.62412e-14 0)
(3.12121 6.72716e-14 0)
(3.12121 2.08003e-14 0)
(3.12121 -2.51743e-14 0)
(3.12121 -1.57527e-14 0)
(3.12121 -3.20955e-14 0)
(3.12121 -8.06106e-14 0)
(3.12121 -1.42505e-13 0)
(3.12121 -7.61465e-14 0)
(3.12121 -3.49194e-14 0)
(3.12121 1.98334e-14 0)
(3.12121 5.39426e-15 0)
(3.12121 2.60812e-14 0)
(3.12121 -1.26422e-14 0)
(3.12121 -8.0814e-15 0)
(3.12121 -1.18054e-14 0)
(3.12121 -5.50828e-14 0)
(3.12121 -1.04631e-13 0)
(3.12121 -2.54284e-13 0)
(3.12121 -2.19615e-13 0)
(3.12121 -1.34487e-13 0)
(3.12121 1.99334e-14 0)
(3.12121 1.42751e-13 0)
(3.12121 1.18694e-13 0)
(3.12121 7.9307e-14 0)
(3.12121 4.96786e-14 0)
(3.12121 2.21672e-14 0)
(3.12121 -1.93567e-14 0)
(3.12121 2.01001e-14 0)
(3.12121 2.12937e-14 0)
(3.12121 2.41875e-14 0)
(3.12121 1.03885e-14 0)
(3.12121 -4.36675e-14 0)
(3.12121 -3.97802e-14 0)
(3.12121 -3.89654e-14 0)
(3.12121 -4.43743e-15 0)
(3.12121 2.17904e-14 0)
(3.12121 2.85216e-14 0)
(3.12121 2.60578e-14 0)
(3.12121 -1.33356e-15 0)
(3.12121 9.93505e-15 0)
(3.12121 -2.79382e-14 0)
(3.12121 -7.88303e-14 0)
(3.12121 -1.11189e-13 0)
(3.12121 -1.83732e-13 0)
(3.12121 -1.63502e-13 0)
(3.12121 -1.00307e-13 0)
(3.12121 -7.54897e-14 0)
(3.12121 7.33393e-14 0)
(3.12121 1.37454e-13 0)
(3.12121 1.08909e-13 0)
(3.12121 1.04651e-14 0)
(3.12121 5.22123e-14 0)
(3.12121 1.11146e-13 0)
(3.12121 9.87604e-14 0)
(3.12121 5.0152e-14 0)
(3.12121 -3.54161e-14 0)
(3.12121 -5.25091e-14 0)
(3.12121 -9.8647e-14 0)
(3.12121 -1.68329e-13 0)
(3.12121 -8.34711e-14 0)
(3.12121 -1.3769e-15 0)
(3.12121 4.2364e-14 0)
(3.12121 -5.46894e-14 0)
(3.12121 -1.1382e-13 0)
(3.12121 -1.37254e-13 0)
(3.12121 -6.13339e-14 0)
(3.12121 -5.27124e-14 0)
(3.12121 -8.22209e-14 0)
(3.12121 -1.36847e-13 0)
(3.12121 -1.1355e-13 0)
(3.12121 -1.08912e-13 0)
(3.12121 -6.49579e-14 0)
(3.12121 4.11838e-14 0)
(3.12121 2.25111e-14 0)
(3.12121 1.79131e-14 0)
(3.12121 2.73514e-14 0)
(3.12121 4.68248e-14 0)
(3.12121 8.75718e-14 0)
(3.12121 7.40895e-14 0)
(3.12121 6.44678e-14 0)
(3.12121 -1.43358e-14 0)
(3.12121 -7.75101e-14 0)
(3.12121 -4.73915e-14 0)
(3.12121 -1.02408e-13 0)
(3.12121 -1.07555e-13 0)
(3.12121 -6.9692e-14 0)
(3.12121 1.88799e-14 0)
(3.12121 7.1579e-14 0)
(3.12121 9.49997e-14 0)
(3.12121 1.1493e-13 0)
(3.12121 1.31483e-13 0)
(3.12121 9.40562e-14 0)
(3.12121 1.60058e-13 0)
(3.12121 1.44575e-13 0)
(3.12121 1.31566e-13 0)
(3.12121 1.20021e-15 0)
(3.12121 -5.63097e-15 0)
(3.12121 9.56499e-15 0)
(3.12121 -6.46778e-14 0)
(3.12121 -1.22915e-13 0)
(3.12121 -1.24585e-13 0)
(3.12121 -1.06365e-13 0)
(3.12121 -7.42061e-14 0)
(3.12121 -8.15541e-14 0)
(3.12121 -1.12126e-13 0)
(3.12121 -2.46576e-14 0)
(3.12121 9.20159e-15 0)
(3.12121 -9.08857e-14 0)
(3.12121 -1.96041e-13 0)
(3.12121 -1.95484e-13 0)
(3.12121 -1.82905e-13 0)
(3.12121 -1.12786e-13 0)
(3.12121 -4.91385e-14 0)
(3.12121 -1.69568e-14 0)
(3.12121 3.16955e-14 0)
(3.12121 1.01684e-14 0)
(3.12121 1.56894e-14 0)
(3.12121 3.91301e-14 0)
(3.12121 1.1796e-13 0)
(3.12121 8.36111e-14 0)
(3.12121 3.27623e-14 0)
(3.12121 -3.53694e-14 0)
(3.12121 -5.69698e-14 0)
(3.12121 -2.75281e-14 0)
(3.12121 -1.7143e-14 0)
(3.12121 -2.22238e-14 0)
(3.12121 8.02772e-14 0)
(3.12121 1.39114e-13 0)
(3.12121 1.08372e-13 0)
(3.12121 9.09724e-14 0)
(3.12121 6.05671e-14 0)
(3.12121 6.02071e-14 0)
(3.12121 7.46062e-14 0)
(3.12121 7.94771e-14 0)
(3.12121 9.0799e-14 0)
(3.12121 -2.50243e-14 0)
(3.12121 -8.86253e-14 0)
(3.12121 -7.62032e-14 0)
(3.12121 -5.99303e-14 0)
(3.12121 -3.879e-14 0)
(3.12121 -9.01456e-14 0)
(3.12121 -9.89738e-14 0)
(3.12121 -1.07715e-13 0)
(3.12121 -1.26612e-13 0)
(3.12121 -4.76916e-14 0)
(3.12121 1.50226e-14 0)
(3.12121 6.23041e-14 0)
(3.12121 5.10822e-14 0)
(3.12121 -6.82885e-14 0)
(3.12121 -6.7415e-14 0)
(3.12121 -7.26325e-14 0)
(3.12121 -8.91987e-14 0)
(3.12121 -1.69279e-13 0)
(3.12121 -1.5321e-13 0)
(3.12121 -1.47025e-15 0)
(3.12121 2.44042e-15 0)
(3.12121 1.12053e-14 0)
(3.12121 -2.54477e-14 0)
(3.12121 2.83382e-16 0)
(3.12121 6.22774e-15 0)
(3.12121 7.46796e-16 0)
(3.12121 -1.58061e-14 0)
(3.12121 -3.52061e-14 0)
(3.12121 -7.42462e-15 0)
(3.12121 5.16956e-14 0)
(3.12121 1.38824e-14 0)
(3.12121 5.85101e-15 0)
(3.12121 -1.49793e-14 0)
(3.12121 2.42609e-14 0)
(3.12121 3.21456e-14 0)
(3.12121 7.48796e-15 0)
(3.12121 -4.68081e-15 0)
(3.12121 -6.19707e-14 0)
(3.12121 -4.71248e-14 0)
(3.12121 -7.54364e-14 0)
(3.12121 -1.05235e-13 0)
(3.12121 -1.18667e-13 0)
(3.12121 -1.1705e-13 0)
(3.12121 -9.32694e-14 0)
(3.12121 -1.38317e-13 0)
(3.12121 -9.86937e-14 0)
(3.12121 -8.66716e-14 0)
(3.12121 -9.97072e-14 0)
(3.12121 -1.1494e-13 0)
(3.12121 -5.47828e-14 0)
(3.12121 3.33391e-14 0)
(3.12121 4.31841e-14 0)
(3.12121 8.1244e-14 0)
(3.12121 5.86768e-14 0)
(3.12121 -1.5636e-14 0)
(3.12121 -8.07473e-14 0)
(3.12121 -1.43271e-13 0)
(3.12121 -1.58544e-13 0)
(3.12121 -2.20844e-13 0)
(3.12121 -2.31007e-14 0)
(3.12121 -3.99069e-15 0)
(3.12121 -1.12886e-14 0)
(3.12121 -8.47946e-14 0)
(3.12121 -1.3564e-13 0)
(3.12121 -1.17154e-13 0)
(3.12121 -1.06465e-13 0)
(3.12121 -9.25693e-14 0)
(3.12121 -3.39892e-14 0)
(3.12121 1.29222e-14 0)
(3.12121 3.99569e-14 0)
(3.12121 6.98787e-14 0)
(3.12121 5.51462e-14 0)
(3.12121 1.33623e-14 0)
(3.12121 4.57812e-14 0)
(3.12121 1.05328e-13 0)
(3.12121 1.07779e-13 0)
(3.12121 6.02237e-14 0)
(3.12121 9.52498e-15 0)
(3.12121 -7.19658e-14 0)
(3.12121 -9.662e-14 0)
(3.12121 -1.13086e-14 0)
(3.12121 8.72817e-15 0)
(3.12121 -6.60114e-16 0)
(3.12121 -7.49029e-14 0)
(3.12121 -1.44802e-13 0)
(3.12121 -4.59446e-14 0)
(3.12121 1.84032e-15 0)
(3.12121 1.86432e-14 0)
(3.12121 -4.90085e-15 0)
(3.12121 -1.87099e-14 0)
(3.12121 8.06239e-14 0)
(3.12121 7.42562e-14 0)
(3.12121 7.32226e-14 0)
(3.12121 8.41979e-14 0)
(3.12121 -1.93e-14 0)
(3.12121 -7.85069e-14 0)
(3.12121 -1.06098e-13 0)
(3.12121 -1.58864e-13 0)
(3.12121 -2.49667e-13 0)
(3.12121 -1.29722e-14 0)
(3.12121 -1.41391e-14 0)
(3.12121 -2.86383e-14 0)
(3.12121 -6.08538e-14 0)
(3.12121 -1.13396e-13 0)
(3.12121 -8.8602e-14 0)
(3.12121 -6.11439e-14 0)
(3.12121 4.98419e-15 0)
(3.12121 8.18408e-14 0)
(3.12121 7.78935e-14 0)
(3.12121 7.82302e-14 0)
(3.12121 5.65498e-14 0)
(3.12121 3.74765e-14 0)
(3.12121 2.28773e-14 0)
(3.12121 3.96535e-14 0)
(3.12121 5.45461e-14 0)
(3.12121 8.96321e-14 0)
(3.12121 1.65792e-13 0)
(3.12121 2.28023e-13 0)
(3.12121 1.33563e-13 0)
(3.12121 3.38058e-14 0)
(3.12121 2.65713e-14 0)
(3.12121 -1.78931e-14 0)
(3.12121 -6.84118e-14 0)
(3.12121 -7.06089e-14 0)
(3.12121 -6.69916e-14 0)
(3.12121 -6.88019e-14 0)
(3.12121 -5.86601e-14 0)
(3.12121 -3.2679e-14 0)
(3.12121 -2.7308e-14 0)
(3.12121 -2.9175e-14 0)
(3.12121 -6.3571e-14 0)
(3.12121 3.57962e-14 0)
(3.12121 4.73582e-14 0)
(3.12121 4.19406e-15 0)
(3.12121 7.66832e-14 0)
(3.12121 1.02638e-13 0)
(3.12121 6.22374e-14 0)
(3.12121 4.05937e-14 0)
(3.12121 -9.11952e-14 0)
(3.12121 2.12737e-14 0)
(3.12121 3.36425e-14 0)
(3.12121 5.10155e-14 0)
(3.12121 1.03558e-13 0)
(3.12121 8.35944e-14 0)
(3.12121 8.28076e-14 0)
(3.12121 1.60598e-13 0)
(3.12121 1.48392e-13 0)
(3.12121 1.337e-13 0)
(3.12121 4.01503e-14 0)
(3.12121 2.59145e-14 0)
(3.12121 5.4006e-14 0)
(3.12121 6.02837e-14 0)
(3.12121 1.07382e-13 0)
(3.12121 5.30725e-14 0)
(3.12121 -2.85916e-14 0)
(3.12121 1.23388e-14 0)
(3.12121 6.7595e-14 0)
(3.12121 1.08979e-13 0)
(3.12121 1.30049e-13 0)
(3.12121 1.13483e-13 0)
(3.12121 1.24725e-13 0)
(3.12121 1.30136e-13 0)
(3.12121 6.80051e-14 0)
(3.12121 -5.00086e-14 0)
(3.12121 -8.89354e-14 0)
(3.12121 -1.62471e-13 0)
(3.12121 -1.84389e-13 0)
(3.12121 -1.29562e-13 0)
(3.12121 -9.95805e-14 0)
(3.12121 -5.6093e-14 0)
(3.12121 -8.3131e-14 0)
(3.12121 -1.03488e-13 0)
(3.12121 -1.00264e-13 0)
(3.12121 -8.37378e-14 0)
(3.12121 -1.03218e-13 0)
(3.12121 -7.5163e-14 0)
(3.12121 -6.69216e-14 0)
(3.12121 -3.99269e-14 0)
(3.12121 -5.97604e-14 0)
(3.12121 2.79382e-15 0)
(3.12121 8.93488e-16 0)
(3.12121 3.50494e-14 0)
(3.12121 1.1385e-13 0)
(3.12121 1.3231e-13 0)
(3.12121 8.5158e-14 0)
(3.12121 6.31342e-14 0)
(3.12121 -4.08404e-15 0)
(3.12121 -5.07354e-14 0)
(3.12121 -9.22926e-14 0)
(3.12121 -1.3446e-13 0)
(3.12121 -8.37445e-14 0)
(3.12121 1.68829e-14 0)
(3.12121 1.16553e-14 0)
(3.12121 -1.00717e-14 0)
(3.12121 1.80965e-14 0)
(3.12121 -2.83682e-14 0)
(3.12121 -1.74363e-14 0)
(3.12121 3.77399e-15 0)
(3.12121 6.7815e-14 0)
(3.12121 1.44905e-13 0)
(3.12121 1.63925e-13 0)
(3.12121 1.63678e-13 0)
(3.12121 1.05232e-13 0)
(3.12121 -1.7203e-14 0)
(3.12121 -4.50711e-14 0)
(3.12121 -1.77744e-13 0)
(3.12121 -2.27049e-13 0)
(3.12121 -1.56197e-13 0)
(3.12121 -8.40679e-14 0)
(3.12121 -8.10307e-14 0)
(3.12121 -1.19764e-13 0)
(3.12121 -1.53617e-13 0)
(3.12121 -1.69093e-13 0)
(3.12121 -1.7608e-13 0)
(3.12121 -2.45732e-13 0)
(3.12121 -2.28596e-13 0)
(3.12121 -2.32533e-13 0)
(3.12121 -1.66155e-13 0)
(3.12121 -2.32495e-13 0)
(3.12121 8.22809e-15 0)
(3.12121 -2.62712e-15 0)
(3.12121 -2.8865e-14 0)
(3.12121 -4.00469e-14 0)
(3.12121 -9.635e-15 0)
(3.12121 -5.69598e-14 0)
(3.12121 -1.10809e-13 0)
(3.12121 -1.06782e-13 0)
(3.12121 -9.93372e-14 0)
(3.12121 -2.81382e-15 0)
(3.12121 -2.71013e-14 0)
(3.12121 -7.18424e-14 0)
(3.12121 -4.88084e-14 0)
(3.12121 -7.97704e-14 0)
(3.12121 -1.18154e-14 0)
(3.12121 -3.34424e-14 0)
(3.12121 -4.92885e-14 0)
(3.12121 2.7288e-14 0)
(3.12121 5.34559e-14 0)
(3.12121 6.74416e-14 0)
(3.12121 8.51947e-14 0)
(3.12121 -5.30392e-14 0)
(3.12121 -2.84916e-14 0)
(3.12121 -5.08054e-14 0)
(3.12121 -8.54848e-14 0)
(3.12121 -1.33246e-13 0)
(3.12121 -1.46695e-13 0)
(3.12121 -2.1486e-13 0)
(3.12121 -1.94474e-13 0)
(3.12121 -1.38644e-13 0)
(3.12121 -1.79561e-13 0)
(3.12121 -2.73711e-13 0)
(3.12121 -3.25723e-13 0)
(3.12121 -3.33824e-13 0)
(3.12121 -3.79302e-13 0)
(3.12121 -3.689e-13 0)
(3.12121 -3.57818e-13 0)
(3.12121 -3.33358e-13 0)
(3.12121 -2.97695e-13 0)
(3.12121 -2.74912e-13 0)
(3.12121 2.06669e-14 0)
(3.12121 2.9025e-14 0)
(3.12121 -2.7138e-15 0)
(3.12121 1.32123e-14 0)
(3.12121 -1.85732e-14 0)
(3.12121 -3.09187e-14 0)
(3.12121 -1.41174e-13 0)
(3.12121 -1.40868e-13 0)
(3.12121 -6.12106e-14 0)
(3.12121 -2.3174e-14 0)
(3.12121 -5.5753e-14 0)
(3.12121 -1.3308e-13 0)
(3.12121 -1.21394e-13 0)
(3.12121 -9.67667e-14 0)
(3.12121 -1.23868e-13 0)
(3.12121 -9.58365e-14 0)
(3.12121 -7.27859e-14 0)
(3.12121 -4.53078e-14 0)
(3.12121 -1.05318e-14 0)
(3.12121 -5.781e-15 0)
(3.12121 1.38024e-14 0)
(3.12121 -4.15972e-14 0)
(3.12121 -9.88171e-14 0)
(3.12121 -1.21384e-13 0)
(3.12121 -1.64418e-13 0)
(3.12121 -1.94244e-13 0)
(3.12121 -1.92747e-13 0)
(3.12121 -2.25939e-13 0)
(3.12121 -3.27076e-13 0)
(3.12121 -3.85797e-13 0)
(3.12121 -3.86467e-13 0)
(3.12121 -4.56295e-13 0)
(3.12121 -4.78049e-13 0)
(3.12121 -5.05421e-13 0)
(3.12121 -4.0799e-13 0)
(3.12121 -4.6145e-13 0)
(3.12121 -4.69814e-13 0)
(3.12121 -4.11118e-13 0)
(3.12121 -3.06103e-13 0)
(3.12121 -1.85399e-13 0)
(3.12121 -1.3589e-14 0)
(3.12121 1.38924e-14 0)
(3.12121 8.2981e-15 0)
(3.12121 -3.06886e-14 0)
(3.12121 -5.2019e-14 0)
(3.12121 -5.2199e-14 0)
(3.12121 -7.43895e-14 0)
(3.12121 -7.09489e-14 0)
(3.12121 1.45158e-14 0)
(3.12121 4.27074e-14 0)
(3.12121 3.49827e-14 0)
(3.12121 -6.5598e-14 0)
(3.12121 -9.54632e-14 0)
(3.12121 -1.5253e-13 0)
(3.12121 -1.99008e-13 0)
(3.12121 -1.09599e-13 0)
(3.12121 -2.20338e-14 0)
(3.12121 -4.08237e-14 0)
(3.12121 -1.96634e-14 0)
(3.12121 4.93885e-14 0)
(3.12121 5.81334e-14 0)
(3.12121 5.69598e-14 0)
(3.12121 1.7283e-14 0)
(3.12121 3.64063e-14 0)
(3.12121 3.05419e-14 0)
(3.12121 1.5476e-14 0)
(3.12121 -1.48826e-14 0)
(3.12121 -8.22242e-14 0)
(3.12121 -2.67483e-13 0)
(3.12121 -4.78759e-13 0)
(3.12121 -5.03507e-13 0)
(3.12121 -4.71445e-13 0)
(3.12121 -4.14315e-13 0)
(3.12121 -4.0783e-13 0)
(3.12121 -4.00659e-13 0)
(3.12121 -3.20149e-13 0)
(3.12121 -3.0768e-13 0)
(3.12121 -3.50597e-13 0)
(3.12121 -3.41309e-13 0)
(3.12121 -2.59436e-13 0)
(3.12121 -2.93451e-14 0)
(3.12121 -5.08688e-14 0)
(3.12121 -6.72916e-14 0)
(3.12121 -1.13386e-13 0)
(3.12121 -6.52646e-14 0)
(3.12121 -1.28222e-14 0)
(3.12121 4.05737e-14 0)
(3.12121 2.88083e-14 0)
(3.12121 1.18887e-13 0)
(3.12121 1.20524e-13 0)
(3.12121 1.25975e-13 0)
(3.12121 6.65848e-14 0)
(3.12121 4.00069e-15 0)
(3.12121 -8.60782e-14 0)
(3.12121 -1.13186e-13 0)
(3.12121 -9.97906e-14 0)
(3.12121 -1.02494e-13 0)
(3.12121 -6.08138e-14 0)
(3.12121 -4.72248e-14 0)
(3.12121 -2.39441e-14 0)
(3.12121 2.46576e-14 0)
(3.12121 6.62781e-15 0)
(3.12121 -3.98569e-14 0)
(3.12121 1.41858e-14 0)
(3.12121 6.9232e-14 0)
(3.12121 4.30841e-14 0)
(3.12121 2.47976e-14 0)
(3.12121 -4.58479e-14 0)
(3.12121 -1.93257e-13 0)