/*--------------------------------*- C++ -*----------------------------------*\
| =========                 |                                                 |
| \\      /  F ield         | OpenFOAM: The Open Source CFD Toolbox           |
|  \\    /   O peration     | Version:  2206                                  |
|   \\  /    A nd           | Website:  www.openfoam.com                      |
|    \\/     M anipulation  |                                                 |
\*---------------------------------------------------------------------------*/
FoamFile
{
    version     2.0;
    format      ascii;
    arch        "LSB;label=32;scalar=64";
    class       volScalarField;
    location    "0.1";
    object      T;
}
// * * * * * * * * * * * * * * * * * * * * * * * * * * * * * * * * * * * * * //

dimensions      [0 0 0 1 0 0 0];

internalField   nonuniform List<scalar> 
4800
(
1
1
1
1
1
1
1
1
1
1
1
1
1
1
1
1
1
1
1
1
1
1
1
1
1
1
1
1
1
1
1
1
1
1
1
1
1
1
1
1
1
1
1
1
1
1
1
1
1
1
1
1
1
1
1
1
1
1
1
1
1
1
1
1
1
1
1
1
1
1
1
1
1
1
1
1
1
1
1
1
1
1
1
1
1
1
1
1
1
1
1
1
1
1
1
1
1
1
1
1
1
1
1
1
1
1
1
1
1
1
1
1
1
1
1
1
1
1
1
1
1
1
1
1
1
1
1
1
1
1
1
1
1
1
1
1
1
1
1
1
1
1
1
1
1
1
1
1
1
1
1
1
1
1
1
1
1
1
1
1
1
1
1
1
1
1
1
1
1
1
1
1
1
1
1
1
1
1
1
1
1
1
1
1
1
1
1
1
1
1
1
1
1
1
1
1
1
1
1
1
1
1
1
1
1
1
1
1
1
1
1
1
1
1
1
1
1
1
1
1
1
1
1
1
1
1
1
1
1
1
1
1
1
1
1
1
1
1
1
1
1
1
1
1
1
1
1
1
1
1
1
1
1
1
1
1
1
1
1
1
1
1
1
1
1
1
1
1
1
1
1
1
1
1
1
1
1
1
1
1
1
1
1
1
1
1
1
1
1
1
1
1
1
1
1
1
1
1
1
1
1
1
1
1
1
1
1
1
1
1
1
1
1
1
1
1
1
1
1
1
1
1
1
1
1
1
1
1
1
1
1
1
1
1
1
1
1
1
1
1
1
1
1
1
1
1
1
1
1
1
1
1
1
1
1
1
1
1
1
1
1
1
1
1
1
1
1
1
1
1
1
1
1
1
1
1
1
1
1
1
1
1
1
1
1
1
1
1
1
1
1
1
1
1
1
1
1
1
1
1
1
1
1
1
1
1
1
1
1
1
1
1
1
1
1
1
1
1
1
1
1
1
1
1
1
1
1
1
1
1
1
1
1
1
1
1
1
1
1
1
1
1
1
1
1
1
1
1
1
1
1
1
1
1
1
1
1
1
1
1
1
1
1
1
1
1
1
1
1
1
1
1
1
1
1
1
1
1
1
1
1
1
1
1
1
1
1
1
1
1
1
1
1
1
1
1
1
1
1
1
1
1
1
1
1
1
1
1
1
1
1
1
1
1
1
1
1
1
1
1
1
1
1
1
1
1
1
1
1
1
1
1
1
1
1
1
1
1
1
1
1
1
1
1
1
1
1
1
1
1
1
1
1
1
1
1
1
1
1
1
1
1
1
1
1
1
1
1
1
1
1
1
1
1
1
1
1
1
1
1
1
1
1
1
1
1
1
1
1
1
1
1
1
1
1
1
1
1
1
1
1
1
1
1
1
1
1
1
1
1
1
1
1
1
1
1
1
1
1
1
1
1
1
1
1
1
1
1
1
1
1
1
1
1
1
1
1
1
1
1
1
1
1
1
1
1
1
1
1
1
1
1
1
1
1
1
1
1
1
1
1
1
1
1
1
1
1
1
1
1
1
1
1
1
1
1
1
1
1
1
1
1
1
1
1
1
1
1
1
1
1
1
1
1
1
1
1
1
1
1
1
1
1
1
1
1
1
1
1
1
1
1
1
1
1
1
1
1
1
1
1
1
1
1
1
1
1
1
1
1
1
1
1
1
1
1
1
1
1
1
1
1
1
1
1
1
1
1
1
1
1
1
1
1
1
1
1
1
1
1
1
1
1
1
1
1
1
1
1
1
1
1
1
1
1
1
1
1
1
1
1
1
1
1
1
1
1
1
1
1
1
1
1
1
1
1
1
1
1
1
1
1
1
1
1
1
1
1
1
1
1
1
1
1
1
1
1
1
1
1
1
1
1
1
1
1
1
1
1
1
1
1
1
1
1
1
1
1
1
1
1
1
1
1
1
1
1
1
1
1
1
1
1
1
1
1
1
1
1
1
1
1
1
1
1
1
1
1
1
1
1
1
1
1
1
1
1
1
1
1
1
1
1
1
1
1
1
1
1
1
1
1
1
1
1
1
1
1
1
1
1
1
1
1
1
1
1
1
1
1
1
1
1
1
1
1
1
1
1
1
1
1
1
1
1
1
1
1
1
1
1
1
1
1
1
1
1
1
1
1
1
1
1
1
1
1
1
1
1
1
1
1
1
1
1
1
1
1
1
1
1
1
1
1
1
1
1
1
1
1
1
1
1
1
1
1
1
1
1
1
1
1
1
1
1
1
1
1
1
1
1
1
1
1
1
1
1
1
1
1
1
1
1
1
1
1
1
1
1
1
1
1
1
1
1
1
1
1
1
1
1
1
1
1
1
1
1
1
1
1
1
1
1
1
1
1
1
1
1
1
1
1
1
1
1
1
1
1
1
1
1
1
1
1
1
1
1
1
1
1
1
1
1
1
1
1
1
1
1
1
1
1
1
1
1
1
1
1
1
1
1
1
1
1
1
1
1
1
1
1
1
1
1
1
1
1
1
1
1
1
1
1
1
1
1
1
1
1
1
1
1
1
1
1
1
1
1
1
1
1
1
1
1
1
1
1
1
1
1
1
1
1
1
1
1
1
1
1
1
1
1
1
1
1
1
1
1
1
1
1
1
1
1
1
1
1
1
1
1
1
1
1
1
1
1
1
1
1
1
1
1
1
1
1
1
1
1
1
1
1
1
1
1
1
1
1
1
1
1
1
1
1
1
1
1
1
1
1
1
1
1
1
1
1
1
1
1
1
1
1
1
1
1
1
1
1
1
1
1
1
1
1
1
1
1
1
1
1
1
1
1
1
1
1
1
1
1
1
1
1
1
1
1
1
1
1
1
1
1
1
1
1
1
1
1
1
1
1
1
1
1
1
1
1
1
1
1
1
1
1
1
1
1
1
1
1
1
1
1
1
1
1
1
1
1
1
1
1
1
1
1
1
1
1
1
1
1
1
1
1
1
1
1
1
1
1
1
1
1
1
1
1
1
1
1
1
1
1
1
1
1
1
1
1
1
1
1
1
1
1
1
1
1
1
1
1
1
1
1
1
1
1
1
1
1
1
1
1
1
1
1
1
1
1
1
1
1
1
1
1
1
1
1
1
1
1
1
1
1
1
1
1
1
1
1
1
1
1
1
1
1
1
1
1
1
1
1
1
1
1
1
1
1
1
1
1
1
1
1
1
1
1
1
1
1
1
1
1
1
1
1
1
1
1
1
1
1
1
1
1
1
1
1
1
1
1
1
1
1
1
1
1
1
1
1
1
1
1
1
1
1
1
1
1
1
1
1
1
1
1
1
1
1
1
1
1
1
1
1
1
1
1
1
1
1
1
1
1
1
1
1
1
1
1
1
1
1
1
1
1
1
1
1
1
1
1
1
1
1
1
1
1
1
1
1
1
1
1
1
1
1
1
1
1
1
1
1
1
1
1
1
1
1
1
1
1
1
1
1
1
1
1
1
1
1
1
1
1
1
1
1
1
1
1
1
1
1
1
1
1
1
1
1
1
1
1
1
1
1
1
1
1
1
1
1
1
1
1
1
1
1
1
1
1
1
1
1
1
1
1
1
1
1
1
1
1
1
1
1
1
1
1
1
1
1
1
1
1
1
1
1
1
1
1
1
1
1
1
1
1
1.06976
1.16045
1.25911
1.36059
1.45097
1.52674
1.62403
1.74857
1.82413
1.86626
1.92011
2.01222
2.07881
2.07812
2.08076
2.09195
2.08895
2.06972
2.03381
1.9887
1.94126
1.90126
1.87828
1.85359
1.83002
1.81591
1.81465
1.81627
1.82241
1.8353
1.85013
1.86339
1.86965
1.86944
1.86744
1.86617
1.86841
1.87357
1.8766
1.87881
1.88224
1.88682
1.89
1.89104
1.89075
1.88766
1.88311
1.87981
1.87922
1.88055
1.88362
1.88879
1.89326
1.89608
1.89717
1.89709
1.8954
1.89147
1.88476
1.87894
1.87743
1.87849
1.88258
1.89037
1.89872
1.90344
1.90448
1.90342
1.89864
1.89233
1.88683
1.8839
1.88286
1.88302
1.88486
1.88838
1.89377
1.89953
1.90515
1.90742
1
1
0.9999
0.999301
1.01335
1.04715
1.05472
1.10055
1.22699
1.32771
1.3808
1.46213
1.5725
1.64661
1.67036
1.72357
1.77743
1.79371
1.82268
1.84862
1.8774
1.91242
1.9217
1.9258
1.9244
1.92156
1.91259
1.89696
1.88458
1.88251
1.87799
1.87503
1.86876
1.86648
1.86925
1.87362
1.87772
1.88245
1.88283
1.88246
1.88245
1.88451
1.89032
1.89451
1.89504
1.8937
1.89126
1.89156
1.89227
1.89226
1.89148
1.89014
1.88973
1.89142
1.89579
1.89885
1.8991
1.89721
1.89538
1.89364
1.89142
1.89074
1.89158
1.8928
1.89332
1.89574
1.89859
1.89953
1.89893
1.89708
1.89682
1.89698
1.89739
1.89724
1.89661
1.89653
1.89648
1.89664
1.89792
1.90026
1
1
1
1
0.999999
1
1
1
0.999997
1
0.999502
1.00095
1.02265
1.0919
1.16234
1.26985
1.45332
1.60377
1.73469
1.8917
1.94764
2.00132
2.02467
2.01798
2.00982
2.00361
1.99505
1.97764
1.95527
1.92573
1.90309
1.89006
1.88973
1.89273
1.89576
1.8984
1.90378
1.9062
1.90566
1.90405
1.90159
1.90096
1.90274
1.90438
1.90561
1.90832
1.91139
1.9132
1.91394
1.91366
1.91167
1.90682
1.90171
1.90012
1.90033
1.90271
1.90848
1.91282
1.9136
1.91334
1.91217
1.91027
1.908
1.90482
1.90171
1.89913
1.89799
1.89863
1.90223
1.90829
1.91259
1.9142
1.91468
1.91433
1.91231
1.90884
1.90635
1.90387
1.90123
1.89972
1
1
1
1
1
1
1
1
1
1
1
1
1
1
1
0.999585
1.00113
1.0324
1.10598
1.30672
1.5438
1.71388
1.84623
1.89433
1.94593
1.98974
1.98665
1.97986
1.98038
1.97483
1.96778
1.9569
1.9531
1.95301
1.95164
1.94715
1.94313
1.93691
1.92987
1.92249
1.91985
1.92045
1.92047
1.92108
1.92214
1.92498
1.93144
1.93929
1.9428
1.94266
1.93969
1.93145
1.92117
1.91641
1.91623
1.91726
1.92036
1.92644
1.93255
1.93558
1.93561
1.93291
1.9287
1.92369
1.9179
1.9124
1.91012
1.91021
1.91153
1.91532
1.92304
1.92949
1.93117
1.93059
1.92744
1.92185
1.91408
1.90958
1.90699
1.90695
1
1
1
1
1
1
1
1
1
1
1
1
1
1
1
1
1
1
1
0.999492
1.00473
1.03461
1.1632
1.38861
1.55363
1.72649
1.83363
1.93092
2.02499
2.02571
2.02363
2.02213
2.0169
2.00833
1.99608
1.9807
1.95872
1.95259
1.95488
1.95356
1.9496
1.9462
1.94144
1.93761
1.9377
1.93981
1.94493
1.95207
1.95708
1.95835
1.95806
1.95436
1.94623
1.93976
1.93818
1.9381
1.93883
1.94096
1.94413
1.94752
1.95017
1.9508
1.94892
1.94342
1.93771
1.9337
1.93049
1.92864
1.92841
1.92918
1.93178
1.93591
1.93956
1.94044
1.93924
1.93355
1.92734
1.92539
1.92445
1.92324
1
1
1
1
1
1
1
1
1
1
1
1
1
1
1
1
1
1
1
1
1
1
1
0.999361
1.0044
1.06671
1.24296
1.40457
1.60354
1.75699
1.87091
1.96526
1.97348
1.97455
1.96462
1.95056
1.95678
1.9669
1.98078
1.9864
1.98417
1.97724
1.96681
1.95691
1.94924
1.94586
1.94533
1.94651
1.95177
1.95867
1.96256
1.96375
1.96416
1.9638
1.96209
1.96013
1.95736
1.95499
1.95297
1.95201
1.95189
1.95391
1.95776
1.95913
1.95893
1.95795
1.95607
1.95206
1.94816
1.94669
1.9462
1.94561
1.94447
1.9434
1.94267
1.94267
1.94373
1.9445
1.94449
1.94407
1
1
1
1
1
1
1
1
1
1
1
1
1
1
1
1
1
1
1
1
1
1
1
1
1
1
0.99999
0.99926
1.01992
1.14218
1.28843
1.48483
1.65696
1.81004
1.90347
1.92499
1.95118
1.97591
1.98489
1.98821
1.98745
1.98263
1.97478
1.96509
1.95579
1.94868
1.94605
1.94622
1.94828
1.95227
1.95686
1.96224
1.96805
1.97246
1.97539
1.97537
1.97284
1.96433
1.95569
1.95151
1.95052
1.95094
1.95505
1.96433
1.97047
1.972
1.97207
1.97113
1.96707
1.95857
1.95247
1.95061
1.94956
1.94857
1.94819
1.94871
1.9508
1.9553
1.95964
1.95972
1
1
1
1
1
1
1
1
1
1
1
1
1
1
1
1
1
1
1
1
1
1
1
1
1
1
1
1
1
1
0.999483
1.00583
1.06695
1.16834
1.36878
1.57245
1.72714
1.82988
1.86883
1.91176
1.93216
1.94025
1.94891
1.96029
1.97015
1.96632
1.95774
1.95066
1.94733
1.94675
1.94661
1.94835
1.95294
1.96173
1.96968
1.97415
1.97509
1.97282
1.96162
1.95236
1.95093
1.95112
1.95317
1.95819
1.96661
1.97374
1.97618
1.97569
1.97153
1.96645
1.96224
1.95906
1.95702
1.95532
1.954
1.95361
1.95395
1.95611
1.96218
1.9659
1
1
1
1
1
1
1
1
1
1
1
1
1
1
1
1
1
1
1
1
1
1
1
1
1
1
1
1
1
1
1
1
1
0.999723
1.00057
1.0287
1.10477
1.30903
1.50992
1.64485
1.75476
1.82337
1.88792
1.93612
1.9573
1.95982
1.95699
1.95138
1.94663
1.94174
1.93716
1.93256
1.93073
1.93297
1.94837
1.965
1.96687
1.96652
1.96648
1.96192
1.95624
1.95279
1.95151
1.95296
1.95744
1.96124
1.964
1.96451
1.96404
1.96425
1.96569
1.96791
1.96792
1.96568
1.9605
1.95688
1.95718
1.9598
1.96206
1.96329
1
1
1
1
1
1
1
1
1
1
1
1
1
1
1
1
1
1
1
1
1
1
1
1
1
1
1
1
1
1
1
1
1
1
1
1
0.999892
0.99994
1.01642
1.05824
1.22873
1.43191
1.58945
1.70247
1.78615
1.88423
1.92611
1.93297
1.93462
1.94175
1.93949
1.92449
1.91404
1.91658
1.92454
1.93726
1.94775
1.9523
1.95329
1.95528
1.95912
1.95974
1.95752
1.95322
1.95005
1.94896
1.94864
1.94812
1.94799
1.95025
1.95851
1.96714
1.96959
1.96988
1.96901
1.9651
1.96075
1.95911
1.95833
1.95818
1
1
1
1
1
1
1
1
1
1
1
1
1
1
1
1
1
1
1
1
1
1
1
1
1
1
1
1
1
1
1
1
1
1
1
1
1
1
1
1
0.99952
1.00558
1.04621
1.20753
1.37915
1.55625
1.70519
1.79961
1.87491
1.90812
1.92005
1.92204
1.92138
1.9156
1.91282
1.91407
1.91889
1.92196
1.92778
1.93858
1.9484
1.95332
1.95435
1.95551
1.95391
1.94634
1.93869
1.93553
1.93591
1.93832
1.94546
1.9566
1.96447
1.96536
1.9641
1.96155
1.96029
1.95964
1.9579
1.95569
1
1
1
1
1
1
1
1
1
1
1
1
1
1
1
1
1
1
1
1
1
1
1
1
1
1
1
1
1
1
1
1
1
1
1
1
1
1
1
1
1
1
1
0.999621
1.00319
1.04309
1.22584
1.39549
1.53498
1.65162
1.7953
1.90191
1.91119
1.90821
1.91523
1.91365
1.90335
1.89458
1.8933
1.90192
1.91974
1.9361
1.94045
1.94169
1.94441
1.94737
1.9459
1.93683
1.93034
1.92996
1.93416
1.94279
1.94693
1.94988
1.95067
1.95187
1.95321
1.95496
1.95591
1.95641
1
1
1
1
1
1
1
1
1
1
1
1
1
1
1
1
1
1
1
1
1
1
1
1
1
1
1
1
1
1
1
1
1
1
1
1
1
1
1
1
1
1
1
1
1
1
0.999947
1.00422
1.0456
1.17967
1.36534
1.60891
1.74002
1.8369
1.87797
1.89551
1.90032
1.89536
1.88428
1.88783
1.89782
1.9092
1.91255
1.91695
1.92728
1.93693
1.93942
1.93754
1.93686
1.93714
1.93705
1.93511
1.93323
1.93274
1.9335
1.93585
1.93975
1.94457
1.94828
1.95072
1
1
1
1
1
1
1
1
1
1
1
1
1
1
1
1
1
1
1
1
1
1
1
1
1
1
1
1
1
1
1
1
1
1
1
1
1
1
1
1
1
1
1
1
1
1
1
1
1
0.999846
1.00624
1.11024
1.31735
1.45588
1.57552
1.73701
1.87772
1.89702
1.89336
1.9049
1.90775
1.89847
1.88782
1.88354
1.89008
1.90644
1.92026
1.92452
1.92564
1.92876
1.93374
1.93541
1.93188
1.92485
1.92295
1.92343
1.92606
1.93061
1.93477
1.94115
1
1
1
1
1
1
1
1
1
1
1
1
1
1
1
1
1
1
1
1
1
1
1
1
1
1
1
1
1
1
1
1
1
1
1
1
1
1
1
1
1
1
1
1
1
1
1
1
1
1
0.999993
0.999887
1.00215
1.01875
1.10189
1.26008
1.53838
1.71983
1.83147
1.87672
1.89498
1.89595
1.89304
1.8784
1.87898
1.88701
1.89734
1.90397
1.90938
1.9176
1.92671
1.92899
1.9273
1.926
1.9242
1.92295
1.92288
1.92387
1.92559
1.92982
1
1
1
1
1
1
1
1
1
1
1
1
1
1
1
1
1
1
1
1
1
1
1
1
1
1
1
1
1
1
1
1
1
1
1
1
1
1
1
1
1
1
1
1
1
1
1
1
1
1
1
1
0.999998
1.00001
0.999905
1.0017
1.06543
1.30412
1.47814
1.58817
1.74787
1.87729
1.90055
1.89598
1.90678
1.90765
1.89624
1.88975
1.88899
1.89511
1.90788
1.91427
1.9169
1.91623
1.91405
1.91446
1.92055
1.92714
1.92674
1.92169
1
1
1
1
1
1
1
1
1
1
1
1
1
1
1
1
1
1
1
1
1
1
1
1
1
1
1
1
1
1
1
1
1
1
1
1
1
1
1
1
1
1
1
1
1
1
1
1
1
1
1
1
1
1
1
0.999993
0.999954
1.00349
1.02843
1.12534
1.29221
1.5737
1.74309
1.85874
1.88859
1.89564
1.89667
1.90194
1.89823
1.89686
1.89925
1.89912
1.9001
1.90029
1.89812
1.90408
1.917
1.9264
1.92739
1.92232
1
1
1
1
1
1
1
1
1
1
1
1
1
1
1
1
1
1
1
1
1
1
1
1
1
1
1
1
1
1
1
1
1
1
1
1
1
1
1
1
1
1
1
1
1
1
1
1
1
1
1
1
1
1
1
1
1
1
0.999985
1.00017
1.00392
1.09911
1.37104
1.57028
1.66906
1.7957
1.88628
1.91395
1.91216
1.91223
1.9187
1.91236
1.89986
1.8927
1.88996
1.89116
1.90285
1.91803
1.92382
1.9211
1
1
1
1
1
1
1
1
1
1
1
1
1
1
1
1
1
1
1
1
1
1
1
1
1
1
1
1
1
1
1
1
1
1
1
1
1
1
1
1
1
1
1
1
1
1
1
1
1
1
1
1
1
1
1
1
1
1
0.999999
0.999999
0.999987
1.00033
1.01225
1.07732
1.25717
1.4652
1.70066
1.81943
1.86806
1.89468
1.90506
1.90717
1.90798
1.90628
1.90272
1.90077
1.90383
1.90981
1.91179
1.91254
1
1
1
1
1
1
1
1
1
1
1
1
1
1
1
1
1
1
1
1
1
1
1
1
1
1
1
1
1
1
1
1
1
1
1
1
1
1
1
1
1
1
1
1
1
1
1
1
1
1
1
1
1
1
1
1
1
1
1
1
0.999999
0.999999
0.999988
1.00006
1.00446
1.03708
1.24755
1.57623
1.78079
1.79358
1.82254
1.87899
1.91012
1.91325
1.91431
1.91503
1.91616
1.91022
1.89787
1.8955
1
1
1
1
1
1
1
1
1
1
1
1
1
1
1
1
1
1
1
1
1
1
1
1
1
1
1
1
1
1
1
1
1
1
1
1
1
1
1
1
1
1
1
1
1
1
1
1
1
1
1
1
1
1
1
1
1
1
1
1
1
1
0.999999
1
0.999996
0.999994
1.00629
1.08187
1.32845
1.55138
1.68261
1.82136
1.87579
1.88666
1.90699
1.9186
1.91875
1.90865
1.88684
1.8806
1
1
1
1
1
1
1
1
1
1
1
1
1
1
1
1
1
1
1
1
1
1
1
1
1
1
1
1
1
1
1
1
1
1
1
1
1
1
1
1
1
1
1
1
1
1
1
1
1
1
1
1
1
1
1
1
1
1
1
1
1
1
1
1
1
1
0.999987
1.00027
1.00849
1.1031
1.26782
1.52141
1.73633
1.86237
1.9232
1.92655
1.92127
1.91315
1.89933
1.888
1
1
1
1
1
1
1
1
1
1
1
1
1
1
1
1
1
1
1
1
1
1
1
1
1
1
1
1
1
1
1
1
1
1
1
1
1
1
1
1
1
1
1
1
1
1
1
1
1
1
1
1
1
1
1
1
1
1
1
1
1
1
1
1
1
1
0.999999
0.999999
0.999986
1.00056
1.00617
1.08141
1.37568
1.69964
1.79521
1.85178
1.89748
1.90424
1.90249
1.90306
1
1
1
1
1
1
1
1
1
1
1
1
1
1
1
1
1
1
1
1
1
1
1
1
1
1
1
1
1
1
1
1
1
1
1
1
1
1
1
1
1
1
1
1
1
1
1
1
1
1
1
1
1
1
1
1
1
1
1
1
1
1
1
1
1
1
1
1
0.999999
0.999999
0.999991
1.00069
1.02513
1.2344
1.52836
1.6824
1.81713
1.86284
1.87081
1.90156
1
1
1
1
1
1
1
1
1
1
1
1
1
1
1
1
1
1
1
1
1
1
1
1
1
1
1
1
1
1
1
1
1
1
1
1
1
1
1
1
1
1
1
1
1
1
1
1
1
1
1
1
1
1
1
1
1
1
1
1
1
1
1
1
1
1
1
1
1
1
0.999999
0.999997
1.00006
1.0057
1.08361
1.27326
1.53487
1.73863
1.82741
1.90185
1
1
1
1
1
1
1
1
1
1
1
1
1
1
1
1
1
1
1
1
1
1
1
1
1
1
1
1
1
1
1
1
1
1
1
1
1
1
1
1
1
1
1
1
1
1
1
1
1
1
1
1
1
1
1
1
1
1
1
1
1
1
1
1
1
1
1
1
1
1
1
1
1
0.999993
1.00051
1.00982
1.08477
1.4095
1.71698
1.87287
1
1
1
1
1
1
1
1
1
1
1
1
1
1
1
1
1
1
1
1
1
1
1
1
1
1
1
1
1
1
1
1
1
1
1
1
1
1
1
1
1
1
1
1
1
1
1
1
1
1
1
1
1
1
1
1
1
1
1
1
1
1
1
1
1
1
1
1
1
1
1
1
1
1
1
0.999997
1.00091
1.04726
1.30911
1.74985
1
1
1
1
1
1
1
1
1
1
1
1
1
1
1
1
1
1
1
1
1
1
1
1
1
1
1
1
1
1
1
1
1
1
1
1
1
1
1
1
1
1
1
1
1
1
1
1
1
1
1
1
1
1
1
1
1
1
1
1
1
1
1
1
1
1
1
1
1
1
1
1
1
1
1
1
0.999999
1.00063
1.01949
1.41966
1
1
1
1
1
1
1
1
1
1
1
1
1
1
1
1
1
1
1
1
1
1
1
1
1
1
1
1
1
1
1
1
1
1
1
1
1
1
1
1
1
1
1
1
1
1
1
1
1
1
1
1
1
1
1
1
1
1
1
1
1
1
1
1
1
1
1
1
1
1
1
1
1
1
1
1
1
0.999999
1.00017
1.06382
1
1
1
1
1
1
1
1
1
1
1
1
1
1
1
1
1
1
1
1
1
1
1
1
1
1
1
1
1
1
1
1
1
1
1
1
1
1
1
1
1
1
1
1
1
1
1
1
1
1
1
1
1
1
1
1
1
1
1
1
1
1
1
1
1
1
1
1
1
1
1
1
1
1
1
1
1
1
1
1.00189
1
1
1
1
1
1
1
1
1
1
1
1
1
1
1
1
1
1
1
1
1
1
1
1
1
1
1
1
1
1
1
1
1
1
1
1
1
1
1
1
1
1
1
1
1
1
1
1
1
1
1
1
1
1
1
1
1
1
1
1
1
1
1
1
1
1
1
1
1
1
1
1
1
1
1
1
1
1
1
1.00002
1
1
1
1
1
1
1
1
1
1
1
1
1
1
1
1
1
1
1
1
1
1
1
1
1
1
1
1
1
1
1
1
1
1
1
1
1
1
1
1
1
1
1
1
1
1
1
1
1
1
1
1
1
1
1
1
1
1
1
1
1
1
1
1
1
1
1
1
1
1
1
1
1
1
1
1
1
1
1
1
1
1
1
1
1
1
1
1
1
1
1
1
1
1
1
1
1
1
1
1
1
1
1
1
1
1
1
1
1
1
1
1
1
1
1
1
1
1
1
1
1
1
1
1
1
1
1
1
1
1
1
1
1
1
1
1
1
1
1
1
1
1
1
1
1
1
1
1
1
1
1
1
1
1
1
1
1
1
1
1
1
1
1
1
1
1
1
1
1
1
1
1
1
1
1
1
1
1
1
1
1
1
1
1
1
1
1
1
1
1
1
1
1
1
1
1
1
1
1
1
1
1
1
1
1
1
1
1
1
1
1
1
1
1
1
1
1
1
1
1
1
1
1
1
1
1
1
1
1
1
1
1
1
1
1
1
1
1
1
1
1
1
1
1
1
1
1
1
1
1
1
1
1
1
1
1
1
1
1
1
1
1
1
1
1
1
1
1
1
1
1
1
1
1
1
1
1
1
1
1
1
1
1
1
1
1
1
1
1
1
1
1
1
1
1
1
1
1
1
1
1
1
1
1
1
1
1
1
1
1
1
1
1
1
1
1
1
1
1
1
1
1
1
1
1
1
1
1
1
1
1
1
1
1
1
1
1
1
1
1
1
1
1
1
1
1
1
1
1
1
1
1
1
1
1
1
1
1
1
1
1
1
1
1
1
1
1
1
1
1
1
1
1
1
1
1
1
1
1
1
1
1
1
1
1
1
1
1
1
1
1
1
1
1
1
1
1
1
1
1
1
1
1
1
1
1
1
1
1
1
1
1
1
1
1
1
1
1
1
1
1
1
1
1
1
1
1
1
1
1
1
1
1
1
1
1
1
1
1
1
1
1
1
1
1
1
1
1
1
1
1
1
1
1
1
1
1
1
1
1
1
1
1
1
1
1
1
1
1
1
1
1
1
1
1
1
1
1
1
1
1
1
1
1
1
1
1
1
1
1
1
1
1
1
1
1
1
1
1
1
1
1
1
1
1
1
1
1
1
1
1
1
1
1
1
1
1
1
1
1
1
1
1
1
1
1
1
1
1
1
1
1
1
1
1
1
1
1
1
1
1
1
1
1
1
1
1
1
1
1
1
1
1
1
1
1
1
1
1
1
1
1
1
1
1
1
1
1
1
1
1
1
1
1
1
1
1
1
1
1
1
1
1
1
1
1
1
1
1
1
1
1
1
1
1
1
1
1
1
1
1
1
1
1
1
1
1
1
1
1
1
1
1
1
1
1
1
1
1
1
1
1
1
1
1
1
1
1
1
1
1
1
1
1
1
1
1
1
1
1
1
1
1
1
1
1
1
1
1
1
1
1
1
1
1
1
1
1
1
1
1
1
1
1
1
1
1
1
1
1
1
1
1
1
1
1
1
1
1
1
1
1
1
1
1
1
1
1
1
1
1
1
1
1
1
1
1
1
1
1
1
1
1
1
1
1
1
1
1
1
1
1
1
1
1
1
1
1
1
1
)
;

boundaryField
{
    inlet
    {
        type            fixedValue;
        value           uniform 1;
    }
    outlet
    {
        type            zeroGradient;
    }
    bottom
    {
        type            symmetryPlane;
    }
    top
    {
        type            symmetryPlane;
    }
    obstacle
    {
        type            zeroGradient;
    }
    defaultFaces
    {
        type            empty;
    }
}


// ************************************************************************* //
