/*--------------------------------*- C++ -*----------------------------------*\
| =========                 |                                                 |
| \\      /  F ield         | OpenFOAM: The Open Source CFD Toolbox           |
|  \\    /   O peration     | Version:  2206                                  |
|   \\  /    A nd           | Website:  www.openfoam.com                      |
|    \\/     M anipulation  |                                                 |
\*---------------------------------------------------------------------------*/
FoamFile
{
    version     2.0;
    format      ascii;
    arch        "LSB;label=32;scalar=64";
    class       volVectorField;
    location    "0.04";
    object      U;
}
// * * * * * * * * * * * * * * * * * * * * * * * * * * * * * * * * * * * * * //

dimensions      [0 1 -1 0 0 0 0];

internalField   nonuniform List<vector> 
75
(
(6.59596 3.34183e-15 0)
(6.59596 3.33224e-15 0)
(6.59596 6.64948e-15 0)
(6.59596 6.5703e-15 0)
(6.59596 6.23774e-15 0)
(6.59596 -2.8755e-17 0)
(6.59596 3.01427e-15 0)
(6.59596 2.68713e-15 0)
(6.59596 2.49585e-15 0)
(6.59596 2.44362e-15 0)
(6.59596 -2.918e-15 0)
(6.59596 -2.37874e-15 0)
(6.59596 -5.36426e-15 0)
(6.59596 -5.11088e-15 0)
(6.59596 -9.15567e-16 0)
(6.59596 3.03386e-15 0)
(6.59596 9.75585e-16 0)
(6.59596 -3.80357e-15 0)
(6.59596 -1.7103e-15 0)
(6.59596 2.71473e-15 0)
(6.59596 3.43809e-15 0)
(6.59596 3.40934e-15 0)
(6.59596 -2.02118e-16 0)
(6.59596 2.98885e-15 0)
(6.59596 2.98802e-15 0)
(6.57333 0.00778163 0)
(6.53365 0.0474894 0)
(6.48848 0.105007 0)
(6.43569 0.198451 0)
(6.37926 0.311571 0)
(6.32088 0.457241 0)
(6.27992 0.597994 0)
(6.26025 0.737821 0)
(6.25916 0.845997 0)
(6.27941 0.997525 0)
(6.59596 3.89313e-06 0)
(6.59596 1.18671e-05 0)
(6.59597 2.23357e-05 0)
(6.59794 -0.00340097 0)
(6.58852 0.00653134 0)
(6.54043 0.125961 0)
(6.48326 0.296469 0)
(6.39852 0.590731 0)
(6.36182 0.797083 0)
(6.28389 1.23462 0)
(6.59596 -2.66282e-10 0)
(6.59596 -1.21069e-09 0)
(6.59596 -3.35435e-09 0)
(6.59596 -1.7605e-05 0)
(6.59595 2.67342e-05 0)
(6.59596 -5.97907e-06 0)
(6.59622 -0.00152418 0)
(6.59509 0.00333165 0)
(6.59612 7.89096e-05 0)
(6.58531 0.0711056 0)
(6.59596 4.87466e-13 0)
(6.59596 -1.50249e-11 0)
(6.59596 1.59606e-11 0)
(6.59596 4.17829e-08 0)
(6.59596 7.55992e-08 0)
(6.59596 -5.05266e-08 0)
(6.59597 -5.12101e-05 0)
(6.59596 -1.8905e-05 0)
(6.59599 -0.000188973 0)
(6.59596 4.16477e-05 0)
(6.59596 -9.29129e-15 0)
(6.59596 -5.03612e-13 0)
(6.59596 -1.61658e-13 0)
(6.59596 -2.91704e-09 0)
(6.59596 3.96406e-09 0)
(6.59596 -4.00209e-09 0)
(6.59596 1.39711e-07 0)
(6.59596 -1.13059e-06 0)
(6.59596 -3.94699e-07 0)
(6.59596 -5.76969e-06 0)
)
;

boundaryField
{
    inlet
    {
        type            fixedValue;
        value           uniform (6.59596 0 0);
    }
    outlet
    {
        type            zeroGradient;
    }
    bottom
    {
        type            symmetryPlane;
    }
    top
    {
        type            symmetryPlane;
    }
    obstacle
    {
        type            slip;
    }
    defaultFaces
    {
        type            empty;
    }
}


// ************************************************************************* //
