/*--------------------------------*- C++ -*----------------------------------*\
| =========                 |                                                 |
| \\      /  F ield         | OpenFOAM: The Open Source CFD Toolbox           |
|  \\    /   O peration     | Version:  2206                                  |
|   \\  /    A nd           | Website:  www.openfoam.com                      |
|    \\/     M anipulation  |                                                 |
\*---------------------------------------------------------------------------*/
FoamFile
{
    version     2.0;
    format      ascii;
    arch        "LSB;label=32;scalar=64";
    class       volVectorField;
    location    "0.18";
    object      U;
}
// * * * * * * * * * * * * * * * * * * * * * * * * * * * * * * * * * * * * * //

dimensions      [0 1 -1 0 0 0 0];

internalField   nonuniform List<vector> 
75
(
(5.9899 4.16739e-19 0)
(5.9899 6.25108e-18 0)
(5.9899 1.08819e-14 0)
(5.9899 1.06173e-14 0)
(5.9899 9.71168e-15 0)
(5.9899 0 0)
(5.9899 -1.08352e-17 0)
(5.9899 3.6673e-17 0)
(5.9899 7.83469e-17 0)
(5.9899 7.54957e-16 0)
(5.9899 4.16739e-18 0)
(5.9899 1.04185e-17 0)
(5.9899 -1.02122e-14 0)
(5.9899 -9.46163e-15 0)
(5.9899 3.17558e-15 0)
(5.9899 0 0)
(5.9899 1.08352e-17 0)
(5.9899 -7.10539e-16 0)
(5.9899 5.62639e-15 0)
(5.9899 1.92101e-14 0)
(5.9899 -4.16739e-18 0)
(5.9899 -1.04185e-17 0)
(5.9899 1.08352e-17 0)
(5.9899 9.98089e-15 0)
(5.9899 1.15912e-14 0)
(5.96599 -0.0310735 0)
(5.91952 0.101611 0)
(5.8807 0.0636717 0)
(5.81227 0.271566 0)
(5.77793 0.276006 0)
(5.68875 0.51968 0)
(5.66606 0.546515 0)
(5.55118 0.813554 0)
(5.58686 0.857537 0)
(5.40348 1.12469 0)
(5.9899 5.94215e-06 0)
(5.9899 1.17622e-05 0)
(5.99722 -0.0165451 0)
(5.97513 0.0390074 0)
(5.96959 0.0453322 0)
(5.88387 0.251136 0)
(5.84567 0.399493 0)
(5.65623 0.850655 0)
(5.63258 1.09946 0)
(5.3224 1.70943 0)
(5.9899 6.82329e-08 0)
(5.9899 -6.55987e-08 0)
(5.98995 -0.000117848 0)
(5.98994 -0.000116236 0)
(5.99015 -0.000673138 0)
(5.98967 0.000569166 0)
(5.9923 -0.00771999 0)
(5.98202 0.0348963 0)
(5.97732 0.0438397 0)
(5.76554 0.707702 0)
(5.9899 3.60249e-09 0)
(5.9899 3.64434e-09 0)
(5.9899 9.06165e-07 0)
(5.9899 -1.72925e-06 0)
(5.98994 -7.89306e-05 0)
(5.98992 -7.40881e-05 0)
(5.98999 -0.000214191 0)
(5.99009 -0.000816405 0)
(5.99 -0.000327996 0)
(5.95544 0.133539 0)
(5.9899 -1.31374e-11 0)
(5.9899 4.4822e-10 0)
(5.9899 1.5483e-07 0)
(5.9899 1.30639e-07 0)
(5.9899 1.7723e-07 0)
(5.9899 -1.06478e-05 0)
(5.9899 -4.61068e-06 0)
(5.98994 -0.000129082 0)
(5.98999 -0.000180992 0)
(5.98783 0.00475778 0)
)
;

boundaryField
{
    inlet
    {
        type            fixedValue;
        value           uniform (5.9899 0 0);
    }
    outlet
    {
        type            zeroGradient;
    }
    bottom
    {
        type            symmetryPlane;
    }
    top
    {
        type            symmetryPlane;
    }
    obstacle
    {
        type            slip;
    }
    defaultFaces
    {
        type            empty;
    }
}


// ************************************************************************* //
