/*--------------------------------*- C++ -*----------------------------------*\
| =========                 |                                                 |
| \\      /  F ield         | OpenFOAM: The Open Source CFD Toolbox           |
|  \\    /   O peration     | Version:  2206                                  |
|   \\  /    A nd           | Website:  www.openfoam.com                      |
|    \\/     M anipulation  |                                                 |
\*---------------------------------------------------------------------------*/
FoamFile
{
    version     2.0;
    format      ascii;
    arch        "LSB;label=32;scalar=64";
    class       volVectorField;
    location    "0.12";
    object      U;
}
// * * * * * * * * * * * * * * * * * * * * * * * * * * * * * * * * * * * * * //

dimensions      [0 1 -1 0 0 0 0];

internalField   nonuniform List<vector> 
4800
(
(3.84848 -1.09819e-14 0)
(3.84848 -4.97919e-14 0)
(3.84848 -8.22875e-14 0)
(3.84848 -6.86185e-14 0)
(3.84848 -4.80616e-14 0)
(3.84848 -8.48813e-15 0)
(3.84848 -5.80767e-15 0)
(3.84848 -2.38241e-14 0)
(3.84848 -7.27726e-14 0)
(3.84848 -6.38944e-14 0)
(3.84848 -4.6438e-14 0)
(3.84848 -3.37425e-14 0)
(3.84848 -2.23139e-14 0)
(3.84848 -7.07822e-14 0)
(3.84848 -1.30226e-13 0)
(3.84848 -9.35762e-14 0)
(3.84848 -5.68765e-15 0)
(3.84848 2.99918e-14 0)
(3.84848 4.17805e-14 0)
(3.84848 6.47612e-14 0)
(3.84848 2.78048e-15 0)
(3.84848 -2.66646e-14 0)
(3.84848 -2.40908e-14 0)
(3.84848 -7.35894e-14 0)
(3.84848 -5.34259e-14 0)
(3.84848 -5.05121e-14 0)
(3.84848 -5.55663e-14 0)
(3.84848 -9.00956e-14 0)
(3.84848 -8.59582e-14 0)
(3.84848 -8.90487e-14 0)
(3.84848 -4.33742e-14 0)
(3.84848 -1.06518e-14 0)
(3.84848 3.14754e-14 0)
(3.84848 3.56362e-14 0)
(3.84848 -3.14754e-14 0)
(3.84848 -1.81541e-13 0)
(3.84848 -1.88486e-13 0)
(3.84848 -1.35053e-13 0)
(3.84848 -1.01714e-13 0)
(3.84848 -4.60813e-14 0)
(3.84848 1.45292e-14 0)
(3.84848 -4.11071e-15 0)
(3.84848 -2.77981e-14 0)
(3.84848 -3.6583e-14 0)
(3.84848 -7.99338e-14 0)
(3.84848 -8.2911e-14 0)
(3.84848 -1.04988e-13 0)
(3.84848 -1.10372e-13 0)
(3.84848 -1.00084e-13 0)
(3.84848 1.95834e-14 0)
(3.84848 6.80684e-14 0)
(3.84848 7.22925e-14 0)
(3.84848 1.15287e-14 0)
(3.84848 -8.65716e-14 0)
(3.84848 -1.89436e-13 0)
(3.84848 -1.30142e-13 0)
(3.84848 -6.37643e-14 0)
(3.84848 -4.54012e-14 0)
(3.84848 -4.23606e-14 0)
(3.84848 3.27457e-14 0)
(3.84848 3.22189e-14 0)
(3.84848 -1.58161e-14 0)
(3.84848 -6.08605e-14 0)
(3.84848 -5.85068e-14 0)
(3.84848 -8.79552e-14 0)
(3.84848 -7.28126e-14 0)
(3.84848 -7.93637e-14 0)
(3.84848 -6.81918e-14 0)
(3.84848 -7.44595e-14 0)
(3.84848 -3.62696e-14 0)
(3.84848 6.61114e-15 0)
(3.84848 1.5726e-14 0)
(3.84848 5.19123e-14 0)
(3.84848 5.94769e-14 0)
(3.84848 -9.40996e-14 0)
(3.84848 -2.22502e-13 0)
(3.84848 -1.9156e-13 0)
(3.84848 -1.81978e-13 0)
(3.84848 -1.48962e-13 0)
(3.84848 -1.19743e-13 0)
(3.84848 4.65514e-14 0)
(3.84848 5.92836e-14 0)
(3.84848 5.49262e-14 0)
(3.84848 2.7118e-14 0)
(3.84848 -2.32373e-14 0)
(3.84848 -8.19608e-14 0)
(3.84848 -1.32886e-13 0)
(3.84848 -1.46922e-13 0)
(3.84848 -8.6885e-14 0)
(3.84848 2.1237e-14 0)
(3.84848 1.13466e-13 0)
(3.84848 1.1724e-13 0)
(3.84848 6.67549e-14 0)
(3.84848 5.17889e-14 0)
(3.84848 -2.07969e-14 0)
(3.84848 -1.19434e-13 0)
(3.84848 -1.26388e-13 0)
(3.84848 -1.10126e-13 0)
(3.84848 6.63448e-16 0)
(3.84848 1.61305e-13 0)
(3.84848 1.76931e-13 0)
(3.84848 1.1631e-13 0)
(3.84848 2.62845e-14 0)
(3.84848 2.75414e-14 0)
(3.84848 -3.842e-14 0)
(3.84848 -1.78731e-14 0)
(3.84848 -2.25706e-15 0)
(3.84848 -5.75433e-15 0)
(3.84848 -3.0672e-15 0)
(3.84848 1.47052e-13 0)
(3.84848 1.43431e-13 0)
(3.84848 8.70517e-14 0)
(3.84848 -3.87067e-15 0)
(3.84848 3.54428e-14 0)
(3.84848 9.89371e-14 0)
(3.84848 1.29602e-13 0)
(3.84848 8.42579e-14 0)
(3.84848 2.41708e-14 0)
(3.84848 -4.98086e-15 0)
(3.84848 -3.90225e-14 0)
(3.84848 -2.6978e-14 0)
(3.84848 -5.33759e-14 0)
(3.84848 -3.51061e-14 0)
(3.84848 -3.37925e-14 0)
(3.84848 -9.74502e-15 0)
(3.84848 -1.44925e-14 0)
(3.84848 -2.56844e-14 0)
(3.84848 -2.23572e-14 0)
(3.84848 -5.01753e-15 0)
(3.84848 -3.98069e-15 0)
(3.84848 2.23039e-15 0)
(3.84848 -5.27424e-15 0)
(3.84848 3.43026e-14 0)
(3.84848 8.49847e-14 0)
(3.84848 -1.64728e-14 0)
(3.84848 -1.14306e-13 0)
(3.84848 -1.14633e-13 0)
(3.84848 -6.06138e-14 0)
(3.84848 1.47492e-14 0)
(3.84848 1.47599e-13 0)
(3.84848 1.51109e-13 0)
(3.84848 5.62364e-14 0)
(3.84848 -5.9677e-16 0)
(3.84848 -4.00736e-14 0)
(3.84848 -9.53598e-14 0)
(3.84848 -1.68929e-13 0)
(3.84848 -1.50636e-13 0)
(3.84848 -1.37617e-13 0)
(3.84848 -3.52227e-14 0)
(3.84848 -3.57762e-14 0)
(3.84848 -9.2896e-14 0)
(3.84848 -8.49513e-14 0)
(3.84848 -8.36011e-14 0)
(3.84848 -7.49263e-14 0)
(3.84848 -8.94855e-14 0)
(3.84848 -1.00941e-13 0)
(3.84848 -1.3698e-13 0)
(3.84848 -8.43846e-14 0)
(3.84848 -6.9652e-14 0)
(3.84848 -2.56976e-14 0)
(3.84848 9.10157e-16 0)
(3.84848 3.01319e-14 0)
(3.84848 2.45376e-15 0)
(3.84848 -6.47278e-14 0)
(3.84848 -8.45646e-14 0)
(3.84848 -8.03972e-14 0)
(3.84848 -4.4561e-14 0)
(3.84848 1.82965e-14 0)
(3.84848 2.87116e-14 0)
(3.84848 -1.86132e-14 0)
(3.84848 -3.40125e-14 0)
(3.84848 -2.03568e-14 0)
(3.84848 1.75897e-14 0)
(3.84848 -2.1237e-14 0)
(3.84848 -7.95104e-14 0)
(3.84848 -8.8542e-14 0)
(3.84848 -8.31144e-14 0)
(3.84848 -5.65698e-14 0)
(3.84848 -3.0892e-14 0)
(3.84848 -5.06187e-14 0)
(3.84848 -5.83034e-14 0)
(3.84848 -9.37829e-15 0)
(3.84848 -4.6108e-14 0)
(3.84848 -7.96771e-14 0)
(3.84848 -1.32873e-13 0)
(3.84848 -2.46509e-13 0)
(3.84848 -2.88637e-13 0)
(3.84848 -2.9063e-13 0)
(3.84848 -2.85013e-13 0)
(3.84848 -2.97578e-13 0)
(3.84848 -2.37611e-13 0)
(3.84848 -1.25205e-13 0)
(3.84848 -1.06392e-13 0)
(3.84848 -1.43475e-13 0)
(3.84848 -1.59271e-13 0)
(3.84848 -1.43145e-13 0)
(3.84848 -1.47192e-14 0)
(3.84848 -6.16773e-15 0)
(3.84848 -1.44525e-14 0)
(3.84848 2.81039e-14 0)
(3.84848 2.21538e-14 0)
(3.84848 4.39309e-14 0)
(3.84848 3.94802e-14 0)
(3.84848 1.86065e-14 0)
(3.84848 -3.79899e-14 0)
(3.84848 -6.96787e-15 0)
(3.84848 4.59813e-14 0)
(3.84848 6.72616e-14 0)
(3.84848 -3.78632e-14 0)
(3.84848 -6.13206e-14 0)
(3.84848 -6.62381e-14 0)
(3.84848 -7.38461e-14 0)
(3.84848 -7.61231e-14 0)
(3.84848 -1.36427e-13 0)
(3.84848 -1.64568e-13 0)
(3.84848 -1.343e-13 0)
(3.84848 -1.1791e-13 0)
(3.84848 -5.27724e-14 0)
(3.84848 -1.03315e-13 0)
(3.84848 -1.61164e-13 0)
(3.84848 -1.62948e-13 0)
(3.84848 -1.26048e-13 0)
(3.84848 -1.25778e-13 0)
(3.84848 -1.50613e-13 0)
(3.84848 -2.22325e-13 0)
(3.84848 -1.9332e-13 0)
(3.84848 -2.08229e-13 0)
(3.84848 -2.41035e-13 0)
(3.84848 -2.51523e-13 0)
(3.84848 -2.02978e-13 0)
(3.84848 -6.14606e-14 0)
(3.84848 -5.52762e-15 0)
(3.84848 -7.16757e-14 0)
(3.84848 -1.01254e-13 0)
(3.84848 -8.50847e-14 0)
(3.84848 -1.03331e-13 0)
(3.84848 -3.0952e-14 0)
(3.84848 4.54745e-14 0)
(3.84848 6.40244e-14 0)
(3.84848 9.92462e-14 0)
(3.84848 -4.82483e-14 0)
(3.84848 -8.75084e-14 0)
(3.84848 -3.93935e-14 0)
(3.84848 2.06269e-14 0)
(3.84848 1.02984e-14 0)
(3.84848 7.23058e-14 0)
(3.84848 8.43246e-14 0)
(3.84848 8.37345e-14 0)
(3.84848 -3.23389e-16 0)
(3.84848 -5.17123e-14 0)
(3.84848 -1.02104e-13 0)
(3.84848 -1.07835e-13 0)
(3.84848 -1.57321e-13 0)
(3.84848 -1.9189e-13 0)
(3.84848 -1.78257e-13 0)
(3.84848 -1.64772e-13 0)
(3.84848 -9.57799e-14 0)
(3.84848 -1.00704e-13 0)
(3.84848 -1.27129e-13 0)
(3.84848 -1.22088e-13 0)
(3.84848 -1.36404e-13 0)
(3.84848 -1.53673e-13 0)
(3.84848 -2.148e-13 0)
(3.84848 -2.63769e-13 0)
(3.84848 -2.46906e-13 0)
(3.84848 -2.44646e-13 0)
(3.84848 -1.957e-13 0)
(3.84848 -1.09379e-13 0)
(3.84848 -1.55854e-13 0)
(3.84848 -1.63668e-13 0)
(3.84848 -1.26992e-13 0)
(3.84848 -1.24211e-13 0)
(3.84848 -1.30116e-13 0)
(3.84848 -1.35907e-13 0)
(3.84848 -1.3249e-13 0)
(3.84848 -1.36814e-13 0)
(3.84848 -1.48692e-13 0)
(3.84848 -7.3446e-14 0)
(3.84848 -1.73497e-14 0)
(3.84848 2.01067e-14 0)
(3.84848 -1.60061e-14 0)
(3.84848 -4.74549e-14 0)
(3.84848 -6.58947e-14 0)
(3.84848 -2.81682e-14 0)
(3.84848 1.5306e-14 0)
(3.84848 4.8455e-14 0)
(3.84848 5.52929e-14 0)
(3.84848 2.27073e-14 0)
(3.84848 2.25139e-14 0)
(3.84848 -3.21122e-14 0)
(3.84848 -8.51514e-14 0)
(3.84848 -1.02288e-13 0)
(3.84848 -1.83442e-13 0)
(3.84848 -1.72733e-13 0)
(3.84848 -1.30406e-13 0)
(3.84848 -4.90318e-14 0)
(3.84848 -2.22572e-14 0)
(3.84848 -1.36114e-13 0)
(3.84848 -1.44155e-13 0)
(3.84848 -1.46232e-13 0)
(3.84848 -1.50859e-13 0)
(3.84848 -1.47402e-13 0)
(3.84848 -1.70039e-13 0)
(3.84848 -1.9446e-13 0)
(3.84848 -2.1425e-13 0)
(3.84848 -2.49053e-13 0)
(3.84848 -1.99101e-13 0)
(3.84848 -9.0489e-14 0)
(3.84848 -6.3811e-14 0)
(3.84848 -1.06288e-13 0)
(3.84848 -2.01732e-13 0)
(3.84848 -2.64569e-13 0)
(3.84848 -2.7045e-13 0)
(3.84848 -2.15937e-13 0)
(3.84848 -2.12057e-13 0)
(3.84848 -1.90433e-13 0)
(3.84848 -1.60721e-13 0)
(3.84848 -1.29772e-13 0)
(3.84848 -9.97506e-14 0)
(3.84848 -6.36497e-14 0)
(3.84848 3.07053e-14 0)
(3.84848 1.33723e-14 0)
(3.84848 -2.30473e-14 0)
(3.84848 -4.19406e-14 0)
(3.84848 -8.38812e-15 0)
(3.84848 3.15154e-14 0)
(3.84848 4.29241e-14 0)
(3.84848 3.43093e-14 0)
(3.84848 3.64263e-14 0)
(3.84848 -4.07037e-14 0)
(3.84848 -3.40059e-14 0)
(3.84848 -6.31342e-14 0)
(3.84848 -1.22274e-13 0)
(3.84848 -1.74864e-13 0)
(3.84848 -1.46755e-13 0)
(3.84848 -1.15107e-13 0)
(3.84848 -1.25892e-13 0)
(3.84848 -1.62065e-13 0)
(3.84848 -3.04413e-13 0)
(3.84848 -4.12258e-13 0)
(3.84848 -3.92134e-13 0)
(3.84848 -3.37652e-13 0)
(3.84848 -2.25039e-13 0)
(3.84848 -2.08789e-13 0)
(3.84848 -3.02729e-13 0)
(3.84848 -2.83986e-13 0)
(3.84848 -3.00142e-13 0)
(3.84848 -2.95894e-13 0)
(3.84848 -2.25466e-13 0)
(3.84848 -2.0989e-13 0)
(3.84848 -3.56101e-13 0)
(3.84848 -4.60546e-13 0)
(3.84848 -4.40283e-13 0)
(3.84848 -3.21175e-13 0)
(3.84848 -1.61778e-13 0)
(3.84848 -1.24548e-13 0)
(3.84848 -1.22374e-13 0)
(3.84848 -1.48316e-13 0)
(3.84848 -1.45949e-13 0)
(3.84848 -1.61303e-13 0)
(3.84848 1.21021e-14 0)
(3.84848 2.54577e-14 0)
(3.84848 2.79715e-15 0)
(3.84848 9.00155e-17 0)
(3.84848 -2.81915e-14 0)
(3.84848 -4.46677e-14 0)
(3.84848 -3.09387e-14 0)
(3.84848 -2.7158e-14 0)
(3.84848 -3.20455e-14 0)
(3.84848 -4.05437e-14 0)
(3.84848 4.72348e-14 0)
(3.84848 6.65248e-14 0)
(3.84848 6.94053e-14 0)
(3.84848 -9.72501e-15 0)
(3.84848 -6.48779e-15 0)
(3.84848 1.57761e-14 0)
(3.84848 5.97537e-14 0)
(3.84848 1.94034e-15 0)
(3.84848 -1.10019e-13 0)
(3.84848 -1.34063e-13 0)
(3.84848 -2.27349e-13 0)
(3.84848 -2.63736e-13 0)
(3.84848 -2.24949e-13 0)
(3.84848 -1.50276e-13 0)
(3.84848 -1.47182e-13 0)
(3.84848 -1.72837e-13 0)
(3.84848 -2.35944e-13 0)
(3.84848 -3.32014e-13 0)
(3.84848 -2.95411e-13 0)
(3.84848 -2.62309e-13 0)
(3.84848 -2.6903e-13 0)
(3.84848 -3.04806e-13 0)
(3.84848 -2.93947e-13 0)
(3.84848 -2.60415e-13 0)
(3.84848 -1.38351e-13 0)
(3.84848 -1.02464e-13 0)
(3.84848 -1.02264e-13 0)
(3.84848 -6.60114e-14 0)
(3.84848 -5.4216e-14 0)
(3.84848 -8.46246e-14 0)
(3.84848 -1.29122e-14 0)
(3.84848 8.52481e-15 0)
(3.84848 4.56779e-14 0)
(3.84848 4.42776e-14 0)
(3.84848 2.21538e-14 0)
(3.84848 -1.85165e-14 0)
(3.84848 -6.02171e-14 0)
(3.84848 -1.23435e-13 0)
(3.84848 -1.35067e-13 0)
(3.84848 -3.83099e-14 0)
(3.84848 1.99901e-14 0)
(3.84848 1.43075e-13 0)
(3.84848 2.01752e-13 0)
(3.84848 1.73307e-13 0)
(3.84848 1.23911e-13 0)
(3.84848 1.00924e-13 0)
(3.84848 1.13893e-13 0)
(3.84848 6.02637e-14 0)
(3.84848 3.91934e-14 0)
(3.84848 6.52279e-14 0)
(3.84848 2.91384e-15 0)
(3.84848 -5.83267e-14 0)
(3.84848 -1.10056e-13 0)
(3.84848 -1.07322e-13 0)
(3.84848 -9.23493e-14 0)
(3.84848 -6.04138e-14 0)
(3.84848 -6.75717e-14 0)
(3.84848 -7.41861e-14 0)
(3.84848 -9.47664e-14 0)
(3.84848 -1.12369e-13 0)
(3.84848 -2.21462e-13 0)
(3.84848 -2.11503e-13 0)
(3.84848 -2.36327e-13 0)
(3.84848 -1.81705e-13 0)
(3.84848 -1.46402e-13 0)
(3.84848 -1.54573e-13 0)
(3.84848 -1.82652e-13 0)
(3.84848 -4.58279e-14 0)
(3.84848 1.90333e-14 0)
(3.84848 3.7881e-14 0)
(3.84848 1.19254e-14 0)
(3.84848 2.40842e-14 0)
(3.84848 4.41276e-14 0)
(3.84848 3.00952e-14 0)
(3.84848 5.26658e-14 0)
(3.84848 5.30225e-14 0)
(3.84848 -3.51494e-14 0)
(3.84848 -4.94885e-14 0)
(3.84848 -3.84266e-14 0)
(3.84848 -3.29957e-14 0)
(3.84848 -3.80732e-14 0)
(3.84848 6.21941e-14 0)
(3.84848 1.09379e-13 0)
(3.84848 2.07513e-13 0)
(3.84848 2.16981e-13 0)
(3.84848 1.43801e-13 0)
(3.84848 7.80802e-15 0)
(3.84848 -2.19171e-14 0)
(3.84848 -8.48146e-15 0)
(3.84848 3.53561e-14 0)
(3.84848 1.54193e-14 0)
(3.84848 8.53147e-15 0)
(3.84848 -1.23048e-13 0)
(3.84848 -2.83649e-13 0)
(3.84848 -2.90707e-13 0)
(3.84848 -2.00091e-13 0)
(3.84848 -5.61364e-14 0)
(3.84848 6.86118e-15 0)
(3.84848 -3.53061e-14 0)
(3.84848 -9.32794e-14 0)
(3.84848 -9.0789e-14 0)
(3.84848 -5.17956e-14 0)
(3.84848 -4.29141e-14 0)
(3.84848 -4.4681e-14 0)
(3.84848 -6.7665e-14 0)
(3.84848 -7.17357e-14 0)
(3.84848 -9.2726e-14 0)
(3.84848 -8.48847e-14 0)
(3.84848 -1.01081e-13 0)
(3.84848 -1.01084e-13 0)
(3.84848 1.30356e-15 0)
(3.84848 9.61499e-15 0)
(3.84848 4.48211e-14 0)
(3.84848 5.68398e-14 0)
(3.84848 2.69046e-14 0)
(3.84848 4.6488e-14 0)
(3.84848 1.05428e-13 0)
(3.84848 1.18804e-13 0)
(3.84848 6.59681e-14 0)
(3.84848 6.66782e-17 0)
(3.84848 -2.83016e-14 0)
(3.84848 -3.57928e-14 0)
(3.84848 -8.4948e-15 0)
(3.84848 5.52195e-14 0)
(3.84848 4.66147e-14 0)
(3.84848 -4.10404e-15 0)
(3.84848 -1.01317e-14 0)
(3.84848 -5.82767e-15 0)
(3.84848 6.0087e-14 0)
(3.84848 4.29174e-14 0)
(3.84848 3.84366e-14 0)
(3.84848 -2.1037e-15 0)
(3.84848 -1.13103e-13 0)
(3.84848 -2.07846e-13 0)
(3.84848 -2.16061e-13 0)
(3.84848 -1.54467e-13 0)
(3.84848 -1.29609e-13 0)
(3.84848 -3.4626e-14 0)
(3.84848 1.29382e-13 0)
(3.84848 1.928e-13 0)
(3.84848 1.65672e-13 0)
(3.84848 1.93663e-13 0)
(3.84848 1.9551e-13 0)
(3.84848 1.94234e-14 0)
(3.84848 -1.20708e-13 0)
(3.84848 -1.20147e-13 0)
(3.84848 -1.1504e-13 0)
(3.84848 -1.7286e-13 0)
(3.84848 -1.93763e-13 0)
(3.84848 -2.03594e-13 0)
(3.84848 6.9512e-15 0)
(3.84848 2.06202e-14 0)
(3.84848 3.20022e-14 0)
(3.84848 7.698e-14 0)
(3.84848 1.12176e-13 0)
(3.84848 7.81335e-14 0)
(3.84848 1.12903e-13 0)
(3.84848 1.3395e-13 0)
(3.84848 1.1711e-13 0)
(3.84848 1.00724e-13 0)
(3.84848 1.11413e-13 0)
(3.84848 2.61879e-14 0)
(3.84848 2.02202e-14 0)
(3.84848 -5.45761e-15 0)
(3.84848 2.92284e-14 0)
(3.84848 2.5011e-14 0)
(3.84848 7.85102e-14 0)
(3.84848 1.48196e-13 0)
(3.84848 8.99155e-14 0)
(3.84848 2.01035e-14 0)
(3.84848 7.97138e-15 0)
(3.84848 -2.06836e-14 0)
(3.84848 -1.67596e-14 0)
(3.84848 9.95172e-15 0)
(3.84848 9.52064e-14 0)
(3.84848 1.13466e-13 0)
(3.84848 6.78217e-14 0)
(3.84848 2.15204e-14 0)
(3.84848 7.64699e-14 0)
(3.84848 2.95958e-13 0)
(3.84848 3.17625e-13 0)
(3.84848 3.20319e-13 0)
(3.84848 3.34368e-13 0)
(3.84848 1.40531e-13 0)
(3.84848 -3.86233e-14 0)
(3.84848 -6.84952e-14 0)
(3.84848 -8.6745e-14 0)
(3.84848 -1.87906e-13 0)
(3.84848 -2.19381e-13 0)
(3.84848 -1.01496e-14 0)
(3.84848 1.73363e-15 0)
(3.84848 -1.53827e-14 0)
(3.84848 -7.44195e-14 0)
(3.84848 -4.52645e-14 0)
(3.84848 9.37162e-15 0)
(3.84848 4.4501e-14 0)
(3.84848 3.43026e-14 0)
(3.84848 5.73066e-14 0)
(3.84848 1.06142e-13 0)
(3.84848 1.44048e-13 0)
(3.84848 1.70576e-13 0)
(3.84848 1.60871e-13 0)
(3.84848 1.33883e-13 0)
(3.84848 4.32975e-14 0)
(3.84848 1.00534e-13 0)
(3.84848 1.54157e-13 0)
(3.84848 1.65669e-13 0)
(3.84848 1.00827e-13 0)
(3.84848 2.20905e-14 0)
(3.84848 4.46844e-14 0)
(3.84848 -3.73631e-14 0)
(3.84848 -3.91201e-14 0)
(3.84848 1.02118e-14 0)
(3.84848 2.00968e-14 0)
(3.84848 1.52923e-13 0)
(3.84848 3.00762e-13 0)
(3.84848 2.77598e-13 0)
(3.84848 1.70089e-13 0)
(3.84848 7.60931e-14 0)
(3.84848 1.13063e-13 0)
(3.84848 1.96867e-13 0)
(3.84848 2.78878e-13 0)
(3.84848 3.06336e-13 0)
(3.84848 2.74261e-13 0)
(3.84848 2.5272e-13 0)
(3.84848 1.89403e-13 0)
(3.84848 1.28762e-13 0)
(3.84848 1.07008e-13 0)
(3.84848 1.44245e-13 0)
(3.84848 1.31163e-13 0)
(3.84848 -1.12853e-14 0)
(3.84848 -4.48878e-14 0)
(3.84848 -6.85085e-14 0)
(3.84848 -1.03681e-13 0)
(3.84848 -8.1084e-14 0)
(3.84848 -2.01201e-14 0)
(3.84848 2.36341e-14 0)
(3.84848 8.41479e-14 0)
(3.84848 5.67098e-14 0)
(3.84848 2.76781e-14 0)
(3.84848 1.60528e-14 0)
(3.84848 3.96202e-14 0)
(3.84848 4.47177e-14 0)
(3.84848 -2.93051e-15 0)
(3.84848 1.81965e-14 0)
(3.84848 5.78933e-14 0)
(3.84848 2.99318e-14 0)
(3.84848 2.95484e-14 0)
(3.84848 8.98388e-14 0)
(3.84848 8.20408e-14 0)
(3.84848 3.76932e-14 0)
(3.84848 -1.33956e-14 0)
(3.84848 -4.77883e-14 0)
(3.84848 -1.36724e-14 0)
(3.84848 1.07809e-13 0)
(3.84848 1.49706e-13 0)
(3.84848 1.50466e-13 0)
(3.84848 1.40538e-13 0)
(3.84848 9.16358e-14 0)
(3.84848 9.41363e-14 0)
(3.84848 1.35103e-13 0)
(3.84848 1.73583e-13 0)
(3.84848 1.49222e-13 0)
(3.84848 1.25658e-13 0)
(3.84848 1.7589e-13 0)
(3.84848 2.1146e-13 0)
(3.84848 2.74861e-13 0)
(3.84848 2.62962e-13 0)
(3.84848 2.53567e-13 0)
(3.84848 1.58387e-13 0)
(3.84848 1.06218e-14 0)
(3.84848 -6.26442e-15 0)
(3.84848 1.36023e-15 0)
(3.84848 -1.01418e-14 0)
(3.84848 -7.16457e-15 0)
(3.84848 -2.25206e-14 0)
(3.84848 3.08387e-15 0)
(3.84848 -2.2994e-14 0)
(3.84848 -4.04637e-14 0)
(3.84848 -6.59647e-14 0)
(3.84848 -8.62249e-14 0)
(3.84848 -8.88853e-14 0)
(3.84848 -2.70347e-14 0)
(3.84848 -7.68099e-14 0)
(3.84848 -1.03311e-13 0)
(3.84848 -1.09726e-13 0)
(3.84848 -1.30523e-13 0)
(3.84848 -1.04595e-13 0)
(3.84848 -6.73116e-14 0)
(3.84848 -8.32677e-14 0)
(3.84848 -4.94552e-14 0)
(3.84848 -1.66395e-14 0)
(3.84848 -8.09473e-15 0)
(3.84848 3.16455e-14 0)
(3.84848 1.92033e-14 0)
(3.84848 1.37657e-14 0)
(3.84848 -8.20142e-16 0)
(3.84848 1.41631e-13 0)
(3.84848 1.78961e-13 0)
(3.84848 1.40891e-13 0)
(3.84848 1.07742e-13 0)
(3.84848 6.5768e-14 0)
(3.84848 1.70296e-14 0)
(3.84848 -2.3404e-14 0)
(3.84848 1.43625e-14 0)
(3.84848 2.4921e-14 0)
(3.84848 5.30592e-14 0)
(3.84848 9.71834e-14 0)
(3.84848 9.19092e-14 0)
(3.84848 1.88899e-14 0)
(3.84848 -1.85565e-14 0)
(3.84848 -2.57178e-14 0)
(3.84848 -3.6873e-15 0)
(3.84848 -1.12819e-14 0)
(3.84848 -1.7603e-14 0)
(3.84848 -1.00707e-13 0)
(3.84848 -1.52246e-13 0)
(3.84848 -1.59858e-13 0)
(3.84848 -1.03121e-13 0)
(3.84848 -4.96752e-15 0)
(3.84848 1.26155e-14 0)
(3.84848 -4.0807e-14 0)
(3.84848 -4.76316e-14 0)
(3.84848 -3.32757e-14 0)
(3.84848 -1.51283e-13 0)
(3.84848 -3.20992e-13 0)
(3.84848 -3.06543e-13 0)
(3.84848 -2.77488e-13 0)
(3.84848 -3.00212e-13 0)
(3.84848 -2.61659e-13 0)
(3.84848 -5.04554e-14 0)
(3.84848 1.24502e-13 0)
(3.84848 2.11973e-13 0)
(3.84848 1.9413e-13 0)
(3.84848 1.12159e-13 0)
(3.84848 8.12207e-14 0)
(3.84848 4.28607e-14 0)
(3.84848 2.65446e-14 0)
(3.84848 2.91784e-14 0)
(3.84848 -1.11486e-14 0)
(3.84848 -1.1702e-14 0)
(3.84848 -9.99606e-14 0)
(3.84848 -1.27755e-13 0)
(3.84848 -9.85804e-14 0)
(3.84848 -9.43696e-14 0)
(3.84848 -1.06985e-14 0)
(3.84848 -1.28122e-14 0)
(3.84848 -1.32056e-14 0)
(3.84848 -5.75933e-14 0)
(3.84848 -5.80307e-14 0)
(3.84848 -9.81169e-15 0)
(3.84848 3.28323e-14 0)
(3.84848 4.56179e-14 0)
(3.84848 3.79866e-14 0)
(3.84848 -3.16188e-14 0)
(3.84848 -1.1725e-13 0)
(3.84848 -1.24125e-13 0)
(3.84848 -1.17747e-13 0)
(3.84848 -2.98485e-14 0)
(3.84848 -2.67746e-14 0)
(3.84848 -4.77382e-14 0)
(3.84848 -6.32909e-14 0)
(3.84848 -9.17192e-14 0)
(3.84848 -1.02368e-13 0)
(3.84848 -8.20708e-14 0)
(3.84848 -8.97222e-14 0)
(3.84848 -5.15622e-14 0)
(3.84848 4.99086e-15 0)
(3.84848 -2.27773e-14 0)
(3.84848 -2.95418e-14 0)
(3.84848 -2.39275e-14 0)
(3.84848 8.50347e-14 0)
(3.84848 1.49576e-13 0)
(3.84848 2.00735e-13 0)
(3.84848 2.54374e-13 0)
(3.84848 2.34524e-13 0)
(3.84848 1.80251e-13 0)
(3.84848 2.84616e-14 0)
(3.84848 -3.59762e-14 0)
(3.84848 -4.91885e-14 0)
(3.84848 -4.37976e-14 0)
(3.84848 -7.08756e-14 0)
(3.84848 -2.03568e-14 0)
(3.84848 3.06286e-14 0)
(3.84848 4.33208e-14 0)
(3.84848 1.55153e-13 0)
(3.84848 1.7373e-13 0)
(3.84848 1.1431e-13 0)
(3.84848 7.06555e-14 0)
(3.84848 4.2634e-14 0)
(3.84848 2.39208e-14 0)
(3.84848 3.82099e-14 0)
(3.84848 3.10454e-14 0)
(3.84848 4.66281e-14 0)
(3.84848 5.34692e-14 0)
(3.84848 7.57798e-14 0)
(3.84848 6.77284e-14 0)
(3.84848 1.75697e-15 0)
(3.84848 -3.22322e-14 0)
(3.84848 -9.41063e-14 0)
(3.84848 -1.17994e-13 0)
(3.84848 -9.90638e-14 0)
(3.84848 -9.16125e-14 0)
(3.84848 -3.59996e-14 0)
(3.84848 5.75499e-14 0)
(3.84848 1.3669e-13 0)
(3.84848 1.5679e-13 0)
(3.84848 1.72983e-13 0)
(3.84848 2.16817e-13 0)
(3.84848 1.65552e-13 0)
(3.84848 7.40361e-14 0)
(3.84848 4.19639e-14 0)
(3.84848 6.52746e-14 0)
(3.84848 6.87185e-14 0)
(3.84848 8.03005e-14 0)
(3.84848 8.38278e-14 0)
(3.84848 7.66166e-14 0)
(3.84848 6.1654e-14 0)
(3.84848 4.59713e-14 0)
(3.84848 8.45779e-14 0)
(3.84848 9.88571e-14 0)
(3.84848 1.06792e-13 0)
(3.84848 5.64331e-14 0)
(3.84848 3.11954e-14 0)
(3.84848 7.60731e-14 0)
(3.84848 1.21031e-13 0)
(3.84848 1.11463e-13 0)
(3.84848 1.08352e-13 0)
(3.84848 1.48582e-13 0)
(3.84848 2.02386e-13 0)
(3.84848 1.38924e-14 0)
(3.84848 -1.61495e-14 0)
(3.84848 -2.64979e-14 0)
(3.84848 -2.5051e-14 0)
(3.84848 3.33958e-14 0)
(3.84848 8.13874e-14 0)
(3.84848 6.70816e-14 0)
(3.84848 5.5893e-14 0)
(3.84848 1.89966e-14 0)
(3.84848 -2.10036e-15 0)
(3.84848 -1.80631e-14 0)
(3.84848 -5.08354e-14 0)
(3.84848 -7.84469e-14 0)
(3.84848 -8.61049e-14 0)
(3.84848 -4.22173e-14 0)
(3.84848 5.45794e-14 0)
(3.84848 1.02158e-13 0)
(3.84848 6.30042e-14 0)
(3.84848 1.58354e-13 0)
(3.84848 2.38371e-13 0)
(3.84848 2.22285e-13 0)
(3.84848 1.91216e-13 0)
(3.84848 1.64185e-13 0)
(3.84848 7.22758e-14 0)
(3.84848 3.854e-15 0)
(3.84848 2.72047e-14 0)
(3.84848 3.38658e-14 0)
(3.84848 -1.40424e-14 0)
(3.84848 2.17804e-14 0)
(3.84848 1.22131e-13 0)
(3.84848 8.12507e-14 0)
(3.84848 6.46078e-14 0)
(3.84848 3.91034e-14 0)
(3.84848 3.83066e-15 0)
(3.84848 -3.09287e-14 0)
(3.84848 -2.41008e-14 0)
(3.84848 -1.24522e-14 0)
(3.84848 3.03619e-14 0)
(3.84848 5.63597e-14 0)
(3.84848 7.49355e-14 0)
(3.84848 -6.44445e-15 0)
(3.84848 -2.61478e-14 0)
(3.84848 -2.12237e-14 0)
(3.84848 1.08985e-14 0)
(3.84848 8.25476e-15 0)
(3.84848 -3.57128e-14 0)
(3.84848 -3.36925e-14 0)
(3.84848 -1.81698e-14 0)
(3.84848 1.99134e-14 0)
(3.84848 1.34723e-14 0)
(3.84848 -1.61561e-14 0)
(3.84848 -6.0007e-14 0)
(3.84848 -4.70081e-14 0)
(3.84848 -4.4211e-14 0)
(3.84848 -6.45978e-14 0)
(3.84848 -1.21354e-14 0)
(3.84848 1.19621e-14 0)
(3.84848 1.23321e-14 0)
(3.84848 4.39443e-14 0)
(3.84848 1.07105e-13 0)
(3.84848 1.355e-13 0)
(3.84848 1.85605e-13 0)
(3.84848 2.39638e-13 0)
(3.84848 1.75017e-13 0)
(3.84848 9.21459e-14 0)
(3.84848 8.11307e-14 0)
(3.84848 1.41521e-13 0)
(3.84848 2.82082e-14 0)
(3.84848 -1.07719e-14 0)
(3.84848 -3.06753e-14 0)
(3.84848 -6.71016e-14 0)
(3.84848 -8.90954e-14 0)
(3.84848 -3.31191e-14 0)
(3.84848 5.43294e-14 0)
(3.84848 2.39041e-14 0)
(3.84848 -1.95367e-15 0)
(3.84848 9.36162e-15 0)
(3.84848 3.08087e-14 0)
(3.84848 1.32323e-14 0)
(3.84848 2.27526e-14 0)
(3.84848 -3.48727e-15 0)
(3.84848 2.41108e-14 0)
(3.84848 4.2364e-14 0)
(3.84848 5.71232e-14 0)
(3.84848 1.17887e-14 0)
(3.84848 -9.37162e-15 0)
(3.84848 1.35423e-14 0)
(3.84848 3.31657e-14 0)
(3.84848 4.27674e-14 0)
(3.84848 4.40876e-14 0)
(3.84848 2.23472e-14 0)
(3.84848 3.2539e-14 0)
(3.84848 9.43796e-14 0)
(3.84848 1.49259e-13 0)
(3.84848 1.34437e-13 0)
(3.84848 2.91017e-14 0)
(3.84848 -5.94103e-15 0)
(3.84848 -3.88867e-14 0)
(3.84848 -1.82598e-14 0)
(3.84848 -5.2009e-16 0)
(3.84848 5.35759e-14 0)
(3.84848 4.11604e-14 0)
(3.84848 7.9287e-14 0)
(3.84848 1.53006e-13 0)
(3.84848 1.50659e-13 0)
(3.84848 1.45518e-13 0)
(3.84848 1.35613e-13 0)
(3.84848 4.77182e-14 0)
(3.84848 -3.65296e-14 0)
(3.84848 -6.51746e-14 0)
(3.84848 -6.88085e-14 0)
(3.84848 -1.31116e-13 0)
(3.84848 -1.19201e-13 0)
(3.84848 -1.46549e-13 0)
(3.84848 -1.65562e-14 0)
(3.84848 -1.51126e-14 0)
(3.84848 -4.30408e-15 0)
(3.84848 -1.40691e-15 0)
(3.84848 -2.60112e-14 0)
(3.84848 -4.91851e-14 0)
(3.84848 8.76818e-16 0)
(3.84848 6.47445e-15 0)
(3.84848 -3.13054e-15 0)
(3.84848 -6.62781e-14 0)
(3.84848 -8.38745e-14 0)
(3.84848 -2.86316e-14 0)
(3.84848 -1.44425e-14 0)
(3.84848 9.54498e-15 0)
(3.84848 5.99303e-14 0)
(3.84848 8.26676e-14 0)
(3.84848 1.50473e-13 0)
(3.84848 1.84015e-13 0)
(3.84848 1.40918e-13 0)
(3.84848 1.50799e-13 0)
(3.84848 1.3363e-13 0)
(3.84848 4.30608e-14 0)
(3.84848 3.75398e-15 0)
(3.84848 -2.30506e-14 0)
(3.84848 -3.18155e-14 0)
(3.84848 -4.07037e-14 0)
(3.84848 -4.02436e-14 0)
(3.84848 1.24288e-14 0)
(3.84848 -3.56162e-14 0)
(3.84848 -2.40908e-14 0)
(3.84848 -1.36224e-14 0)
(3.84848 -3.59729e-14 0)
(3.84848 -1.12683e-13 0)
(3.84848 -7.66499e-14 0)
(3.84848 -1.96434e-14 0)
(3.84848 -4.20806e-14 0)
(3.84848 -8.73618e-14 0)
(3.84848 -7.67499e-14 0)
(3.84848 -1.02214e-13 0)
(3.84848 -8.23009e-14 0)
(3.84848 -8.03072e-14 0)
(3.84848 -9.71134e-14 0)
(3.84848 -1.3584e-13 0)
(3.84848 -1.90983e-13 0)
(3.84848 -1.87276e-13 0)
(3.84848 -2.27252e-13 0)
(3.84848 1.27355e-15 0)
(3.84848 -1.59227e-14 0)
(3.84848 -8.56281e-14 0)
(3.84848 -1.44348e-13 0)
(3.84848 -1.1512e-13 0)
(3.84848 -7.45695e-14 0)
(3.84848 -7.82468e-14 0)
(3.84848 -5.3946e-14 0)
(3.84848 9.88171e-15 0)
(3.84848 1.31956e-13 0)
(3.84848 1.84682e-13 0)
(3.84848 2.08566e-13 0)
(3.84848 1.26882e-13 0)
(3.84848 1.1625e-13 0)
(3.84848 1.10779e-13 0)
(3.84848 1.12709e-13 0)
(3.84848 7.90303e-14 0)
(3.84848 5.63731e-14 0)
(3.84848 -5.93436e-15 0)
(3.84848 -7.04355e-14 0)
(3.84848 -5.40627e-14 0)
(3.84848 -1.39824e-14 0)
(3.84848 6.21774e-15 0)
(3.84848 -1.03685e-15 0)
(3.84848 -3.44693e-14 0)
(3.84848 -7.61665e-14 0)
(3.84848 -7.55264e-14 0)
(3.84848 4.93419e-15 0)
(3.84848 -4.66481e-14 0)
(3.84848 -1.80064e-14 0)
(3.84848 -2.73314e-14 0)
(3.84848 2.26706e-16 0)
(3.84848 -2.99385e-15 0)
(3.84848 6.05471e-14 0)
(3.84848 -1.75397e-14 0)
(3.84848 -1.15427e-13 0)
(3.84848 -1.98511e-13 0)
(3.84848 -2.39945e-13 0)
(3.84848 -2.1062e-13 0)
(3.84848 -2.18427e-13 0)
(3.84848 1.04685e-14 0)
(3.84848 1.44858e-14 0)
(3.84848 2.33907e-14 0)
(3.84848 4.09637e-14 0)
(3.84848 5.74232e-14 0)
(3.84848 2.36774e-14 0)
(3.84848 -6.03438e-15 0)
(3.84848 1.05685e-15 0)
(3.84848 1.75664e-14 0)
(3.84848 6.65048e-14 0)
(3.84848 3.0922e-14 0)
(3.84848 9.41163e-15 0)
(3.84848 8.04806e-15 0)
(3.84848 -1.29456e-14 0)
(3.84848 9.24826e-15 0)
(3.84848 4.66347e-14 0)
(3.84848 3.91801e-14 0)
(3.84848 2.65679e-14 0)
(3.84848 -5.44694e-14 0)
(3.84848 -1.45782e-13 0)
(3.84848 -1.26148e-13 0)
(3.84848 -1.49016e-13 0)
(3.84848 -6.49312e-14 0)
(3.84848 -9.95505e-15 0)
(3.84848 2.93384e-14 0)
(3.84848 7.9307e-14 0)
(3.84848 4.96919e-14 0)
(3.84848 -2.35741e-14 0)
(3.84848 -1.23135e-13 0)
(3.84848 1.13186e-14 0)
(3.84848 6.83951e-14 0)
(3.84848 1.07155e-13 0)
(3.84848 1.18851e-13 0)
(3.84848 1.43308e-13 0)
(3.84848 1.71186e-13 0)
(3.84848 1.49306e-13 0)
(3.84848 7.96104e-14 0)
(3.84848 2.32107e-14 0)
(3.84848 -1.3407e-13 0)
(3.84848 -2.26665e-13 0)
(3.84848 -1.85865e-14 0)
(3.84848 -7.76801e-15 0)
(3.84848 5.04921e-14 0)
(3.84848 1.38567e-13 0)
(3.84848 1.30062e-13 0)
(3.84848 1.03661e-13 0)
(3.84848 7.43662e-14 0)
(3.84848 3.31557e-14 0)
(3.84848 -6.51446e-15 0)
(3.84848 2.65979e-14 0)
(3.84848 -5.26091e-15 0)
(3.84848 -9.40496e-15 0)
(3.84848 -1.01551e-14 0)
(3.84848 -3.33958e-14 0)
(3.84848 -8.31144e-15 0)
(3.84848 2.3204e-15 0)
(3.84848 -1.21388e-14 0)
(3.84848 -8.25809e-14 0)
(3.84848 -1.22945e-13 0)
(3.84848 -9.11724e-14 0)
(3.84848 -9.35828e-14 0)
(3.84848 -6.39477e-14 0)
(3.84848 -4.94085e-14 0)
(3.84848 -1.71563e-14 0)
(3.84848 3.33591e-14 0)
(3.84848 1.03585e-13 0)
(3.84848 6.59714e-14 0)
(3.84848 2.94051e-15 0)
(3.84848 1.97834e-14 0)
(3.84848 -1.11019e-15 0)
(3.84848 1.41291e-14 0)
(3.84848 9.32228e-14 0)
(3.84848 1.10126e-13 0)
(3.84848 8.44246e-14 0)
(3.84848 5.40593e-14 0)
(3.84848 3.52961e-14 0)
(3.84848 2.23239e-14 0)
(3.84848 -1.90466e-14 0)
(3.84848 -2.15414e-13 0)
(3.84848 -2.61429e-13 0)
(3.84848 -6.70116e-16 0)
(3.84848 3.15588e-14 0)
(3.84848 4.91452e-14 0)
(3.84848 4.53712e-14 0)
(3.84848 5.15756e-14 0)
(3.84848 6.31209e-14 0)
(3.84848 8.22942e-14 0)
(3.84848 7.46729e-14 0)
(3.84848 -2.3304e-14 0)
(3.84848 -5.73332e-14 0)
(3.84848 -8.02472e-14 0)
(3.84848 -7.39094e-14 0)
(3.84848 -2.97385e-14 0)
(3.84848 -1.30456e-14 0)
(3.84848 -7.12923e-14 0)
(3.84848 -1.00417e-13 0)
(3.84848 -1.10836e-13 0)
(3.84848 -1.97181e-13 0)
(3.84848 -1.97014e-13 0)
(3.84848 -1.26999e-13 0)
(3.84848 -9.8157e-14 0)
(3.84848 -5.47228e-14 0)
(3.84848 -9.10757e-14 0)
(3.84848 -1.12883e-13 0)
(3.84848 -7.36661e-14 0)
(3.84848 -5.54096e-15 0)
(3.84848 9.68167e-15 0)
(3.84848 -2.20171e-14 0)
(3.84848 -5.21057e-14 0)
(3.84848 -8.38778e-14 0)
(3.84848 -6.51346e-14 0)
(3.84848 -5.73799e-14 0)
(3.84848 -3.72531e-14 0)
(3.84848 -4.60079e-14 0)
(3.84848 -9.84803e-14 0)
(3.84848 -1.07098e-13 0)
(3.84848 -9.77769e-14 0)
(3.84848 -1.54077e-13 0)
(3.84848 -2.5138e-13 0)
(3.84848 -2.65282e-13 0)
(3.84848 3.33391e-16 0)
(3.84848 1.97567e-14 0)
(3.84848 1.52293e-14 0)
(3.84848 -5.51429e-15 0)
(3.84848 -4.2414e-14 0)
(3.84848 -3.46527e-14 0)
(3.84848 -3.60896e-14 0)
(3.84848 -5.51929e-14 0)
(3.84848 -5.9697e-14 0)
(3.84848 -7.35794e-14 0)
(3.84848 -4.67647e-14 0)
(3.84848 -2.65813e-14 0)
(3.84848 -4.40809e-14 0)
(3.84848 -4.30674e-14 0)
(3.84848 -3.19755e-14 0)
(3.84848 -4.36409e-14 0)
(3.84848 -7.45729e-14 0)
(3.84848 -1.24732e-13 0)
(3.84848 -1.33863e-13 0)
(3.84848 -1.34213e-13 0)
(3.84848 -7.57097e-14 0)
(3.84848 -9.87437e-14 0)
(3.84848 -1.10479e-13 0)
(3.84848 -1.31023e-13 0)
(3.84848 -2.00708e-13 0)
(3.84848 -2.69433e-13 0)
(3.84848 -1.60591e-13 0)
(3.84848 -8.47713e-14 0)
(3.84848 -7.27592e-14 0)
(3.84848 -8.23976e-14 0)
(3.84848 -7.51563e-14 0)
(3.84848 -1.29092e-13 0)
(3.84848 -1.06895e-13 0)
(3.84848 -1.25295e-13 0)
(3.84848 -1.60548e-13 0)
(3.84848 -1.69799e-13 0)
(3.84848 -1.50236e-13 0)
(3.84848 -1.00601e-13 0)
(3.84848 -9.37895e-14 0)
(3.84848 -1.00514e-13 0)
(3.84848 9.82836e-15 0)
(3.84848 -3.29424e-14 0)
(3.84848 -9.86604e-14 0)
(3.84848 -9.45397e-14 0)
(3.84848 -8.58982e-14 0)
(3.84848 -9.94572e-14 0)
(3.84848 -9.49731e-14 0)
(3.84848 -4.94519e-14 0)
(3.84848 -2.31873e-14 0)
(3.84848 -5.39593e-14 0)
(3.84848 -6.03871e-14 0)
(3.84848 1.39157e-14 0)
(3.84848 -7.99471e-15 0)
(3.84848 -5.11388e-14 0)
(3.84848 -7.26926e-14 0)
(3.84848 -7.08289e-14 0)
(3.84848 -8.98388e-14 0)
(3.84848 -3.82966e-14 0)
(3.84848 -5.26158e-14 0)
(3.84848 -1.49949e-13 0)
(3.84848 -1.56607e-13 0)
(3.84848 -1.44502e-13 0)
(3.84848 -1.43475e-13 0)
(3.84848 -1.93963e-13 0)
(3.84848 -2.55434e-13 0)
(3.84848 -2.1501e-13 0)
(3.84848 -1.47202e-13 0)
(3.84848 1.39657e-14 0)