/*--------------------------------*- C++ -*----------------------------------*\
| =========                 |                                                 |
| \\      /  F ield         | OpenFOAM: The Open Source CFD Toolbox           |
|  \\    /   O peration     | Version:  2206                                  |
|   \\  /    A nd           | Website:  www.openfoam.com                      |
|    \\/     M anipulation  |                                                 |
\*---------------------------------------------------------------------------*/
FoamFile
{
    version     2.0;
    format      ascii;
    arch        "LSB;label=32;scalar=64";
    class       volScalarField;
    location    "0.14";
    object      T;
}
// * * * * * * * * * * * * * * * * * * * * * * * * * * * * * * * * * * * * * //

dimensions      [0 0 0 1 0 0 0];

internalField   nonuniform List<scalar> 
75
(
1
1
1
1
1
1
1
1
1
1
1
1
1
1
1
1
1
1
1
1
1
1
1
1
1
1.07364
1.17755
1.28977
1.40877
1.53003
1.65512
1.76557
1.86422
1.93549
1.91807
0.999911
0.999275
1.01012
1.03733
1.10206
1.18935
1.31401
1.41426
1.53246
1.65447
0.999991
0.999971
0.999851
1.0001
0.999914
1.00123
1.01365
1.07171
1.21253
1.63592
1
1
0.999985
0.999985
0.999924
0.999893
0.999979
0.999763
1.0094
1.38328
1
1
1
0.999998
0.999994
0.999969
0.999968
0.99998
1.00007
1.0921
)
;

boundaryField
{
    inlet
    {
        type            fixedValue;
        value           uniform 1;
    }
    outlet
    {
        type            zeroGradient;
    }
    bottom
    {
        type            symmetryPlane;
    }
    top
    {
        type            symmetryPlane;
    }
    obstacle
    {
        type            zeroGradient;
    }
    defaultFaces
    {
        type            empty;
    }
}


// ************************************************************************* //
