/*--------------------------------*- C++ -*----------------------------------*\
| =========                 |                                                 |
| \\      /  F ield         | OpenFOAM: The Open Source CFD Toolbox           |
|  \\    /   O peration     | Version:  2206                                  |
|   \\  /    A nd           | Website:  www.openfoam.com                      |
|    \\/     M anipulation  |                                                 |
\*---------------------------------------------------------------------------*/
FoamFile
{
    version     2.0;
    format      ascii;
    arch        "LSB;label=32;scalar=64";
    class       volScalarField;
    location    "0.2";
    object      rho;
}
// * * * * * * * * * * * * * * * * * * * * * * * * * * * * * * * * * * * * * //

dimensions      [1 -3 0 0 0 0 0];

internalField   nonuniform List<scalar> 
4800
(
1.40001
1.40001
1.40001
1.40001
1.40001
1.40001
1.40001
1.40001
1.40001
1.40001
1.40001
1.40001
1.40001
1.40001
1.40001
1.40001
1.40001
1.40001
1.40001
1.40001
1.40001
1.40001
1.40001
1.40001
1.40001
1.40001
1.40001
1.40001
1.40001
1.40001
1.40001
1.40001
1.40001
1.40001
1.40001
1.40001
1.40001
1.40001
1.40001
1.40001
1.40001
1.40001
1.40001
1.40001
1.40001
1.40001
1.40001
1.40001
1.40001
1.40001
1.40001
1.40001
1.40001
1.40001
1.40001
1.40001
1.40001
1.40001
1.40001
1.40001
1.40001
1.40001
1.40001
1.40001
1.40001
1.40001
1.40001
1.40001
1.40001
1.40001
1.40001
1.40001
1.40001
1.40001
1.40001
1.40001
1.40001
1.40001
1.40001
1.40001
1.40001
1.40001
1.40001
1.40001
1.40001
1.40001
1.40001
1.40001
1.40001
1.40001
1.40001
1.40001
1.40001
1.40001
1.40001
1.40001
1.40001
1.40001
1.40001
1.40001
1.40001
1.40001
1.40001
1.40001
1.40001
1.40001
1.40001
1.40001
1.40001
1.40001
1.40001
1.40001
1.40001
1.40001
1.40001
1.40001
1.40001
1.40001
1.40001
1.40001
1.40001
1.40001
1.40001
1.40001
1.40001
1.40001
1.40001
1.40001
1.40001
1.40001
1.40001
1.40001
1.40001
1.40001
1.40001
1.40001
1.40001
1.40001
1.40001
1.40001
1.40001
1.40001
1.40001
1.40001
1.40001
1.40001
1.40001
1.40001
1.40001
1.40001
1.40001
1.40001
1.40001
1.40001
1.40001
1.40001
1.40001
1.40001
1.40001
1.40001
1.40001
1.40001
1.40001
1.40001
1.40001
1.40001
1.40001
1.40001
1.40001
1.40001
1.40001
1.40001
1.40001
1.40001
1.40001
1.40001
1.40001
1.40001
1.40001
1.40001
1.40001
1.40001
1.40001
1.40001
1.40001
1.40001
1.40001
1.40001
1.40001
1.40001
1.40001
1.40001
1.40001
1.40001
1.40001
1.40001
1.40001
1.40001
1.40001
1.40001
1.40001
1.40001
1.40001
1.40001
1.40001
1.40001
1.40001
1.40001
1.40001
1.40001
1.40001
1.40001
1.40001
1.40001
1.40001
1.40001
1.40001
1.40001
1.40001
1.40001
1.40001
1.40001
1.40001
1.40001
1.40001
1.40001
1.40001
1.40001
1.40001
1.40001
1.40001
1.40001
1.40001
1.40001
1.40001
1.40001
1.40001
1.40001
1.40001
1.40001
1.40001
1.40001
1.40001
1.40001
1.40001
1.40001
1.40001
1.40001
1.40001
1.40001
1.40001
1.40001
1.40001
1.40001
1.40001
1.40001
1.40001
1.40001
1.40001
1.40001
1.40001
1.40001
1.40001
1.40001
1.40001
1.40001
1.40001
1.40001
1.40001
1.40001
1.40001
1.40001
1.40001
1.40001
1.40001
1.40001
1.40001
1.40001
1.40001
1.40001
1.40001
1.40001
1.40001
1.40001
1.40001
1.40001
1.40001
1.40001
1.40001
1.40001
1.40001
1.40001
1.40001
1.40001
1.40001
1.40001
1.40001
1.40001
1.40001
1.40001
1.40001
1.40001
1.40001
1.40001
1.40001
1.40001
1.40001
1.40001
1.40001
1.40001
1.40001
1.40001
1.40001
1.40001
1.40001
1.40001
1.40001
1.40001
1.40001
1.40001
1.40001
1.40001
1.40001
1.40001
1.40001
1.40001
1.40001
1.40001
1.40001
1.40001
1.40001
1.40001
1.40001
1.40001
1.40001
1.40001
1.40001
1.40001
1.40001
1.40001
1.40001
1.40001
1.40001
1.40001
1.40001
1.40001
1.40001
1.40001
1.40001
1.40001
1.40001
1.40001
1.40001
1.40001
1.40001
1.40001
1.40001
1.40001
1.40001
1.40001
1.40001
1.40001
1.40001
1.40001
1.40001
1.40001
1.40001
1.40001
1.40001
1.40001
1.40001
1.40001
1.40001
1.40001
1.40001
1.40001
1.40001
1.40001
1.40001
1.40001
1.40001
1.40001
1.40001
1.40001
1.40001
1.40001
1.40001
1.40001
1.40001
1.40001
1.40001
1.40001
1.40001
1.40001
1.40001
1.40001
1.40001
1.40001
1.40001
1.40001
1.40001
1.40001
1.40001
1.40001
1.40001
1.40001
1.40001
1.40001
1.40001
1.40001
1.40001
1.40001
1.40001
1.40001
1.40001
1.40001
1.40001
1.40001
1.40001
1.40001
1.40001
1.40001
1.40001
1.40001
1.40001
1.40001
1.40001
1.40001
1.40001
1.40001
1.40001
1.40001
1.40001
1.40001
1.40001
1.40001
1.40001
1.40001
1.40001
1.40001
1.40001
1.40001
1.40001
1.40001
1.40001
1.40001
1.40001
1.40001
1.40001
1.40001
1.40001
1.40001
1.40001
1.40001
1.40001
1.40001
1.40001
1.40001
1.40001
1.40001
1.40001
1.40001
1.40001
1.40001
1.40001
1.40001
1.40001
1.40001
1.40001
1.40001
1.40001
1.40001
1.40001
1.40001
1.40001
1.40001
1.40001
1.40001
1.40001
1.40001
1.40001
1.40001
1.40001
1.40001
1.40001
1.40001
1.40001
1.40001
1.40001
1.40001
1.40001
1.40001
1.40001
1.40001
1.40001
1.40001
1.40001
1.40001
1.40001
1.40001
1.40001
1.40001
1.40001
1.40001
1.40001
1.40001
1.40001
1.40001
1.40001
1.40001
1.40001
1.40001
1.40001
1.40001
1.40001
1.40001
1.40001
1.40001
1.40001
1.40001
1.40001
1.40001
1.40001
1.40001
1.40001
1.40001
1.40001
1.40001
1.40001
1.40001
1.40001
1.40001
1.40001
1.40001
1.40001
1.40001
1.40001
1.40001
1.40001
1.40001
1.40001
1.40001
1.40001
1.40001
1.40001
1.40001
1.40001
1.40001
1.40001
1.40001
1.40001
1.40001
1.40001
1.40001
1.40001
1.40001
1.40001
1.40001
1.40001
1.40001
1.40001
1.40001
1.40001
1.40001
1.40001
1.40001
1.40001
1.40001
1.40001
1.40001
1.40001
1.40001
1.40001
1.40001
1.40001
1.40001
1.40001
1.40001
1.40001
1.40001
1.40001
1.40001
1.40001
1.40001
1.40001
1.40001
1.40001
1.40001
1.40001
1.40001
1.40001
1.40001
1.40001
1.40001
1.40001
1.40001
1.40001
1.40001
1.40001
1.40001
1.40001
1.40001
1.40001
1.40001
1.40001
1.40001
1.40001
1.40001
1.40001
1.40001
1.40001
1.40001
1.40001
1.40001
1.40001
1.40001
1.40001
1.40001
1.40001
1.40001
1.40001
1.40001
1.40001
1.40001
1.40001
1.40001
1.40001
1.40001
1.40001
1.40001
1.40001
1.40001
1.40001
1.40001
1.40001
1.40001
1.40001
1.40001
1.40001
1.40001
1.40001
1.40001
1.40001
1.40001
1.40001
1.40001
1.40001
1.40001
1.40001
1.40001
1.40001
1.40001
1.40001
1.40001
1.40001
1.40001
1.40001
1.40001
1.40001
1.40001
1.40001
1.40001
1.40001
1.40001
1.40001
1.40001
1.40001
1.40001
1.40001
1.40001
1.40001
1.40001
1.40001
1.40001
1.40001
1.40001
1.40001
1.40001
1.40001
1.40001
1.40001
1.40001
1.40001
1.40001
1.40001
1.40001
1.40001
1.40001
1.40001
1.40001
1.40001
1.40001
1.40001
1.40001
1.40001
1.40001
1.40001
1.40001
1.40001
1.40001
1.40001
1.40001
1.40001
1.40001
1.40001
1.40001
1.40001
1.40001
1.40001
1.40001
1.40001
1.40001
1.40001
1.40001
1.40001
1.40001
1.40001
1.40001
1.40001
1.40001
1.40001
1.40001
1.40001
1.40001
1.40001
1.40001
1.40001
1.40001
1.40001
1.40001
1.40001
1.40001
1.40001
1.40001
1.40001
1.40001
1.40001
1.40001
1.40001
1.40001
1.40001
1.40001
1.40001
1.40001
1.40001
1.40001
1.40001
1.40001
1.40001
1.40001
1.40001
1.40001
1.40001
1.40001
1.40001
1.40001
1.40001
1.40001
1.40001
1.40001
1.40001
1.40001
1.40001
1.40001
1.40001
1.40001
1.40001
1.40001
1.40001
1.40001
1.40001
1.40001
1.40001
1.40001
1.40001
1.40001
1.40001
1.40001
1.40001
1.40001
1.40001
1.40001
1.40001
1.40001
1.40001
1.40001
1.40001
1.40001
1.40001
1.40001
1.40001
1.40001
1.40001
1.40001
1.40001
1.40001
1.40001
1.40001
1.40001
1.40001
1.40001
1.40001
1.40001
1.40001
1.40001
1.40001
1.40001
1.40001
1.40001
1.40001
1.40001
1.40001
1.40001
1.40001
1.40001
1.40001
1.40001
1.40001
1.40001
1.40001
1.40001
1.40001
1.40001
1.40001
1.40001
1.40001
1.40001
1.40001
1.40001
1.40001
1.40001
1.40001
1.40001
1.40001
1.40001
1.40001
1.40001
1.40001
1.40001
1.40001
1.40001
1.40001
1.40001
1.40001
1.40001
1.40001
1.40001
1.40001
1.40001
1.40001
1.40001
1.40001
1.40001
1.40001
1.40001
1.40001
1.40001
1.40001
1.40001
1.40001
1.40001
1.40001
1.40001
1.40001
1.40001
1.40001
1.40001
1.40001
1.40001
1.40001
1.40001
1.40001
1.40001
1.40001
1.40001
1.40001
1.40001
1.40001
1.40001
1.40001
1.40001
1.40001
1.40001
1.40001
1.40001
1.40001
1.40001
1.40001
1.40001
1.40001
1.40001
1.40001
1.40001
1.40001
1.40001
1.40001
1.40001
1.40001
1.40001
1.40001
1.40001
1.40001
1.40001
1.40001
1.40001
1.40001
1.40001
1.40001
1.40001
1.40001
1.40001
1.40001
1.40001
1.40001
1.40001
1.40001
1.40001
1.40001
1.40001
1.40001
1.40001
1.40001
1.40001
1.40001
1.40001
1.40001
1.40001
1.40001
1.40001
1.40001
1.40001
1.40001
1.40001
1.40001
1.40001
1.40001
1.40001
1.40001
1.40001
1.40001
1.40001
1.40001
1.40001
1.40001
1.40001
1.40001
1.40001
1.40001
1.40001
1.40001
1.40001
1.40001
1.40001
1.40001
1.40001
1.40001
1.40001
1.40001
1.40001
1.40001
1.40001
1.40001
1.40001
1.40001
1.40001
1.40001
1.40001
1.40001
1.40001
1.40001
1.40001
1.40001
1.40001
1.40001
1.40001
1.40001
1.40001
1.40001
1.40001
1.40001
1.40001
1.40001
1.40001
1.40001
1.40001
1.40001
1.40001
1.40001
1.40001
1.40001
1.40001
1.40001
1.40001
1.40001
1.40001
1.40001
1.40001
1.40001
1.40001
1.40001
1.40001
1.40001
1.40001
1.40001
1.40001
1.40001
1.40001
1.40001
1.40001
1.40001
1.40001
1.40001
1.40001
1.40001
1.40001
1.40001
1.40001
1.40001
1.40001
1.40001
1.40001
1.40001
1.40001
1.40001
1.40001
1.40001
1.40001
1.40001
1.40001
1.40001
1.40001
1.40001
1.40001
1.40001
1.40001
1.40001
1.40001
1.40001
1.40001
1.40001
1.40001
1.40001
1.40001
1.40001
1.40001
1.40001
1.40001
1.40001
1.40001
1.40001
1.40001
1.40001
1.40001
1.40001
1.40001
1.40001
1.40001
1.40001
1.40001
1.40001
1.40001
1.40001
1.40001
1.40001
1.40001
1.40001
1.40001
1.40001
1.40001
1.40001
1.40001
1.40001
1.40001
1.40001
1.40001
1.40001
1.40001
1.40001
1.40001
1.40001
1.40001
1.40001
1.40001
1.40001
1.40001
1.40001
1.40001
1.40001
1.40001
1.40001
1.40001
1.40001
1.40001
1.40001
1.40001
1.40001
1.40001
1.40001
1.40001
1.40001
1.40001
1.40001
1.40001
1.40001
1.40001
1.40001
1.40001
1.40001
1.40001
1.40001
1.40001
1.40001
1.40001
1.40001
1.40001
1.40001
1.40001
1.40001
1.40001
1.40001
1.40001
1.40001
1.40001
1.40001
1.40001
1.40001
1.40001
1.40001
1.40001
1.40001
1.40001
1.40001
1.40001
1.40001
1.40001
1.40001
1.40001
1.40001
1.40001
1.40001
1.40001
1.40001
1.40001
1.40001
1.40001
1.40001
1.40001
1.40001
1.40001
1.40001
1.40001
1.40001
1.40001
1.40001
1.40001
1.40001
1.40001
1.40001
1.40001
1.40001
1.40001
1.40001
1.40001
1.40001
1.40001
1.40001
1.40001
1.40001
1.40001
1.40001
1.40001
1.40001
1.40001
1.40001
1.40001
1.40001
1.40001
1.40001
1.40001
1.40001
1.40001
1.40001
1.40001
1.40001
1.40001
1.40001
1.40001
1.40001
1.40001
1.40001
1.40001
1.40001
1.40001
1.40001
1.40001
1.40001
1.40001
1.40001
1.40001
1.40001
1.40001
1.40001
1.40001
1.40001
1.40001
1.40001
1.40001
1.40001
1.40001
1.40001
1.40001
1.40001
1.40001
1.40001
1.40001
1.40001
1.40001
1.40001
1.40001
1.40001
1.40001
1.40001
1.40001
1.40001
1.40001
1.40001
1.40001
1.40001
1.40001
1.40001
1.40001
1.40001
1.40001
1.40001
1.40001
1.40001
1.40001
1.40001
1.40001
1.40001
1.40001
1.40001
1.40001
1.40001
1.40001
1.40001
1.40001
1.40001
1.40001
1.40001
1.40001
1.40001
1.40001
1.40001
1.40001
1.40001
1.40001
1.40001
1.40001
1.40001
1.40001
1.40001
1.40001
1.40001
1.40001
1.40001
1.40001
1.40001
1.40001
1.40001
1.40001
1.40001
1.40001
1.40001
1.40001
1.40001
1.40001
1.40001
1.40001
1.40001
1.40001
1.40001
1.40001
1.40001
1.40001
1.40001
1.40001
1.40001
1.40001
1.40001
1.40001
1.40001
1.40001
1.40001
1.40001
1.40001
1.40001
1.40001
1.40001
1.40001
1.40001
1.40001
1.40001
1.40001
1.40001
1.40001
1.40001
1.40001
1.40001
1.40001
1.40001
1.40001
1.40001
1.40001
1.40001
1.40001
1.40001
1.40001
1.40001
1.40001
1.40001
1.40001
1.40001
1.40001
1.40001
1.40001
1.40001
1.40001
1.40001
1.40001
1.40001
1.40001
1.40001
1.40001
1.40001
1.40001
1.40001
1.40001
1.40001
1.40001
1.40001
1.40001
1.40001
1.40001
1.40001
1.40001
1.40001
1.40001
1.40001
1.40001
1.40001
1.40001
1.40001
1.40001
1.40001
1.40001
1.40001
1.40001
1.40001
1.40001
1.40001
1.40001
1.40001
1.40001
1.40001
1.40001
1.40001
1.40001
1.40001
1.40001
1.40001
1.40001
1.40001
1.40001
1.40001
1.40001
1.40001
1.40001
1.40001
1.40001
1.40001
1.40001
1.40001
1.40001
1.40001
1.40001
1.40001
1.40001
1.40001
1.40001
1.40001
1.40001
1.40001
1.40001
1.40001
1.40001
1.40001
1.40001
1.40001
1.40001
1.40001
1.40001
1.40001
1.40001
1.40001
1.40001
1.40001
1.40001
1.40001
1.40001
1.40001
1.40001
1.40001
1.40001
1.40001
1.40001
1.40001
1.40001
1.40001
1.40001
1.40001
1.40001
1.40001
1.40001
1.40001
1.40001
1.40001
1.40001
1.40001
1.40001
1.40001
1.40001
1.40001
1.40001
1.40001
1.40001
1.40001
1.40001
1.40001
1.40001
1.40001
1.40001
1.40001
1.40001
1.40001
1.40001
1.40001
1.40001
1.40001
1.40001
1.40001
1.40001
1.40001
1.40001
1.40001
1.40001
1.40001
1.40001
1.40001
1.40001
1.40001
1.40001
1.40001
1.40001
1.40001
1.40001
1.40001
1.40001
1.40001
1.40001
1.40001
1.40001
1.40001
1.40001
1.40001
1.40001
1.40001
1.40001
1.40001
1.40001
1.40001
1.40001
1.40001
1.40001
1.40001
1.40001
1.40001
1.40001
1.40001
1.40001
1.40001
1.40001
1.40001
1.40001
1.40001
1.40001
1.40001
1.40001
1.40001
1.40001
1.40001
1.40001
1.40001
1.40001
1.40001
1.40001
1.40001
1.40001
1.40001
1.40001
1.40001
1.40001
1.40001
1.40001
1.40001
1.40001
1.40001
1.40001
1.40001
1.40001
1.40001
1.40001
1.40001
1.40001
1.40001
1.40001
1.40001
1.40001
1.40001
1.40001
1.40001
1.40001
1.40001
1.40001
1.40001
1.40001
1.40001
1.40001
1.40001
1.40001
1.40001
1.40001
1.40001
1.40001
1.40001
1.40001
1.40001
1.40001
1.40001
1.40001
1.40001
1.40001
1.40001
1.40001
1.40001
1.40001
1.40001
1.40001
1.40001
1.40001
1.40001
1.40001
1.40001
1.40001
1.40001
1.40001
1.40001
1.40001
1.40001
1.40001
1.40001
1.40001
1.40001
1.40001
1.40001
1.40001
1.40001
1.40001
1.40001
1.40001
1.40001
1.40001
1.40001
1.40001
1.40001
1.40001
1.40001
1.40001
1.40001
1.40001
1.40001
1.40001
1.40001
1.40001
1.40001
1.40001
1.40001
1.40001
1.40001
1.40001
1.6664
2.03649
2.44719
2.76855
3.06863
3.29762
3.44352
3.41713
3.3011
3.14654
2.9704
2.87165
2.81966
2.78446
2.78385
2.79819
2.81916
2.8346
2.83474
2.83072
2.83038
2.83606
2.84441
2.85032
2.85251
2.85358
2.85293
2.85124
2.84903
2.84664
2.84532
2.84534
2.84554
2.84649
2.84921
2.85217
2.85309
2.85347
2.85389
2.85377
2.85255
2.85053
2.8483
2.84743
2.84769
2.84869
2.85071
2.8523
2.85205
2.85145
2.85073
2.84939
2.84742
2.84617
2.846
2.84596
2.84614
2.84707
2.8488
2.85014
2.85051
2.85053
2.85021
2.84912
2.84759
2.84672
2.84651
2.84642
2.84646
2.84699
2.84756
2.84731
2.84644
2.84502
2.84269
2.83946
2.83503
2.82864
2.82186
2.80809
1.41031
1.45117
1.53848
1.71625
1.94521
2.23001
2.53679
2.7716
2.86193
2.97829
2.97789
2.94364
2.90693
2.88675
2.85519
2.84265
2.83152
2.82091
2.82075
2.82379
2.83197
2.84113
2.84707
2.84721
2.84707
2.84876
2.85051
2.85058
2.8501
2.84863
2.84661
2.84516
2.84461
2.84481
2.84733
2.85082
2.85172
2.85185
2.8516
2.85066
2.8491
2.84742
2.84607
2.8459
2.84633
2.84741
2.8491
2.8505
2.85052
2.8502
2.84973
2.84871
2.84695
2.8459
2.84586
2.84597
2.84645
2.8476
2.84919
2.85005
2.85013
2.85005
2.84953
2.84828
2.84694
2.84654
2.8465
2.84649
2.8467
2.84733
2.84768
2.84733
2.84641
2.84499
2.84261
2.83895
2.83397
2.82715
2.81999
2.80574
1.40002
1.40025
1.40176
1.41065
1.43858
1.52822
1.71694
2.08121
2.51876
2.82361
2.99743
3.0408
3.02387
2.9843
2.92467
2.84383
2.81496
2.80612
2.81114
2.81914
2.82538
2.8301
2.83322
2.83491
2.83759
2.84172
2.84633
2.84798
2.8481
2.84754
2.84499
2.84126
2.84038
2.8406
2.84259
2.84606
2.8475
2.84783
2.84768
2.84637
2.84432
2.84252
2.84168
2.84168
2.84223
2.84356
2.84526
2.84667
2.84695
2.84694
2.84683
2.84605
2.84437
2.84342
2.8435
2.84384
2.84459
2.84595
2.84736
2.848
2.84812
2.84812
2.84767
2.84648
2.84533
2.84506
2.84506
2.84519
2.84572
2.84656
2.84676
2.84635
2.84543
2.84391
2.84131
2.83745
2.83227
2.82521
2.81778
2.80336
1.40001
1.40001
1.4
1.40001
1.40015
1.40147
1.40917
1.45456
1.64504
1.98174
2.46102
2.73031
2.90087
2.89533
2.88714
2.891
2.8799
2.852
2.83841
2.81907
2.80428
2.80113
2.80493
2.81479
2.82495
2.83114
2.83666
2.83899
2.83898
2.8383
2.83567
2.83284
2.83248
2.83289
2.83481
2.83829
2.84001
2.84041
2.84035
2.83865
2.83576
2.8348
2.83492
2.83528
2.83613
2.83744
2.83903
2.84024
2.84067
2.84088
2.84102
2.84069
2.8394
2.83861
2.83879
2.83932
2.84028
2.84181
2.84316
2.84356
2.84375
2.84383
2.84334
2.84216
2.8415
2.84156
2.84177
2.84222
2.84303
2.8439
2.844
2.84359
2.84266
2.84108
2.83836
2.83439
2.8291
2.82191
2.81439
2.79998
1.40001
1.40001
1.40001
1.40001
1.40001
1.4
1.40001
1.40026
1.40556
1.43825
1.60529
1.9522
2.41552
2.7027
2.86396
2.93429
2.9225
2.90053
2.85451
2.80923
2.78509
2.78504
2.79037
2.80019
2.81115
2.81461
2.8171
2.81958
2.82134
2.82166
2.82137
2.8217
2.82341
2.82454
2.82602
2.82861
2.83073
2.83111
2.83108
2.82966
2.82715
2.82688
2.82738
2.82799
2.82908
2.8307
2.83192
2.83266
2.83319
2.83353
2.83373
2.83354
2.83262
2.8322
2.83252
2.83321
2.83433
2.83597
2.83711
2.8374
2.83762
2.83771
2.83719
2.83609
2.83591
2.83624
2.83683
2.83777
2.83893
2.83967
2.83966
2.8393
2.83841
2.83682
2.8341
2.83011
2.82481
2.81769
2.81026
2.79589
1.40001
1.40001
1.40001
1.40001
1.40001
1.40001
1.40001
1.40001
1.40001
1.40014
1.4038
1.43856
1.57043
1.93395
2.33156
2.72875
2.80663
2.84093
2.85847
2.83944
2.81661
2.81177
2.80492
2.80438
2.80462
2.80475
2.80767
2.81013
2.81216
2.81333
2.81385
2.81549
2.8187
2.82067
2.82212
2.82395
2.82561
2.82556
2.82541
2.82498
2.82375
2.82384
2.82429
2.82458
2.82535
2.82703
2.82778
2.82814
2.82865
2.82899
2.829
2.82838
2.82739
2.82718
2.82754
2.82835
2.82958
2.83103
2.83191
2.83205
2.8321
2.83206
2.83142
2.83061
2.83072
2.83115
2.83185
2.83305
2.8345
2.83511
2.83504
2.83461
2.83362
2.83191
2.82912
2.82507
2.81963
2.81245
2.80499
2.7907
1.40001
1.40001
1.40001
1.40001
1.40001
1.40001
1.40001
1.40001
1.4
1.40001
1.4
1.40016
1.40268
1.43787
1.56858
1.89545
2.31624
2.65998
2.82402
2.87622
2.8722
2.86066
2.83702
2.81741
2.81072
2.80992
2.81185
2.8118
2.81097
2.81158
2.81317
2.81649
2.82053
2.82355
2.82523
2.8266
2.82696
2.82571
2.82488
2.82449
2.824
2.82451
2.82498
2.82517
2.82564
2.82668
2.82693
2.82688
2.82708
2.82728
2.82685
2.82572
2.82498
2.82479
2.82495
2.82564
2.82689
2.82819
2.82902
2.82897
2.82869
2.82825
2.82742
2.82688
2.82704
2.82746
2.8282
2.82956
2.83116
2.83164
2.83143
2.83082
2.82961
2.82761
2.82464
2.8205
2.8149
2.80767
2.80005
2.78553
1.40001
1.40001
1.40001
1.40001
1.40001
1.40001
1.40001
1.40001
1.40001
1.40001
1.4
1.40001
1.4
1.40018
1.40303
1.42992
1.58302
1.88259
2.29616
2.5974
2.80847
2.84443
2.84773
2.84087
2.83774
2.82969
2.82797
2.82532
2.82116
2.81947
2.81995
2.82048
2.82312
2.82715
2.82938
2.82962
2.82835
2.82643
2.82515
2.82437
2.82418
2.82467
2.82514
2.82551
2.8261
2.82704
2.82756
2.82749
2.82741
2.82727
2.82635
2.82521
2.8248
2.82454
2.8246
2.82527
2.82643
2.82759
2.82818
2.82794
2.82741
2.82663
2.82569
2.82534
2.82536
2.8256
2.82638
2.82782
2.82933
2.82963
2.82923
2.82838
2.82686
2.82449
2.82127
2.817
2.81117
2.80374
2.79592
2.78112
1.40001
1.40001
1.40001
1.40001
1.40001
1.40001
1.40001
1.40001
1.40001
1.40001
1.40001
1.40001
1.4
1.40001
1.4
1.40014
1.40396
1.42929
1.5807
1.89985
2.34272
2.57768
2.75442
2.82638
2.8393
2.83968
2.82432
2.8216
2.81987
2.81541
2.81647
2.8179
2.82069
2.82549
2.82821
2.82941
2.82896
2.82789
2.82664
2.82543
2.82497
2.82511
2.8255
2.82615
2.82708
2.82823
2.82861
2.82836
2.82774
2.82709
2.82593
2.825
2.82474
2.8245
2.82451
2.82519
2.82662
2.82805
2.82833
2.82803
2.82748
2.82655
2.82557
2.82526
2.82523
2.82538
2.82613
2.82764
2.82904
2.82913
2.82866
2.82765
2.8258
2.82302
2.8195
2.81502
2.8089
2.80116
2.79298
2.77782
1.40001
1.40001
1.40001
1.40001
1.40001
1.40001
1.40001
1.40001
1.40001
1.40001
1.40001
1.40001
1.40001
1.40001
1.4
1.4
1.40001
1.40014
1.40455
1.43689
1.5773
1.91742
2.31972
2.65203
2.74367
2.79189
2.80224
2.8083
2.81279
2.81096
2.81105
2.81224
2.81503
2.81983
2.82385
2.82665
2.82722
2.82686
2.82599
2.82549
2.82562
2.8259
2.82648
2.8274
2.82852
2.82972
2.83002
2.82969
2.82889
2.82795
2.82672
2.82573
2.82541
2.82518
2.82516
2.82578
2.82716
2.82838
2.82843
2.82809
2.82752
2.82658
2.82569
2.82553
2.82548
2.82558
2.82626
2.82771
2.82899
2.82903
2.8286
2.82761
2.82556
2.82245
2.81873
2.81411
2.80772
2.79963
2.79119
2.77581
1.40001
1.40001
1.40001
1.40001
1.40001
1.40001
1.40001
1.40001
1.40001
1.40001
1.40001
1.40001
1.40001
1.40001
1.40001
1.40001
1.40001
1.4
1.40001
1.40023
1.40414
1.44629
1.58311
1.9381
2.34549
2.67417
2.78526
2.82035
2.83629
2.83149
2.82562
2.82265
2.82263
2.82376
2.82583
2.82854
2.83107
2.83134
2.82993
2.82873
2.82928
2.82983
2.83048
2.83129
2.83235
2.83314
2.83289
2.83224
2.83129
2.83016
2.82887
2.82781
2.82737
2.82708
2.82701
2.82748
2.8286
2.82961
2.82951
2.82894
2.82811
2.82705
2.82626
2.82607
2.82602
2.8261
2.82668
2.82793
2.82895
2.82894
2.8285
2.82751
2.8255
2.8224
2.81839
2.81347
2.80691
2.79844
2.78979
2.77455
1.40001
1.40001
1.40001
1.40001
1.40001
1.40001
1.40001
1.40001
1.40001
1.40001
1.40001
1.40001
1.40001
1.40001
1.40001
1.40001
1.40001
1.40001
1.40001
1.4
1.40001
1.40039
1.40481
1.45462
1.6302
1.98887
2.37614
2.68189
2.79833
2.85026
2.84891
2.8464
2.84391
2.84347
2.84296
2.8419
2.842
2.84228
2.84091
2.83804
2.8379
2.83828
2.83859
2.83897
2.83933
2.83943
2.83858
2.83765
2.83678
2.8356
2.83414
2.83273
2.83179
2.83133
2.83121
2.83136
2.83165
2.83185
2.83156
2.83076
2.82978
2.82865
2.82782
2.82754
2.82745
2.82743
2.82772
2.82864
2.8293
2.82909
2.82849
2.82735
2.82539
2.82252
2.81856
2.81322
2.80622
2.79749
2.78865
2.77367
1.40001
1.40001
1.40001
1.40001
1.40001
1.40001
1.40001
1.40001
1.40001
1.40001
1.40001
1.40001
1.40001
1.40001
1.40001
1.40001
1.40001
1.40001
1.40001
1.4
1.4
1.4
1.40001
1.40066
1.40826
1.46528
1.68946
2.06316
2.41453
2.67326
2.79575
2.82493
2.83969
2.84387
2.84827
2.84657
2.84237
2.84152
2.84133
2.84003
2.84054
2.84141
2.84155
2.84181
2.84188
2.84145
2.84086
2.8405
2.84033
2.83961
2.83828
2.837
2.83632
2.8359
2.83576
2.83584
2.83581
2.83568
2.83513
2.83401
2.83259
2.83107
2.83018
2.82988
2.82979
2.82981
2.83001
2.8306
2.83052
2.83002
2.82936
2.82823
2.82619
2.82316
2.81897
2.81336
2.8063
2.79699
2.78782
2.77309
1.40001
1.40001
1.40001
1.40001
1.40001
1.40001
1.40001
1.40001
1.40001
1.40001
1.40001
1.40001
1.40001
1.40001
1.40001
1.40001
1.40001
1.40001
1.40001
1.40001
1.40001
1.4
1.4
1.4
1.40003
1.40093
1.41421
1.48211
1.74175
2.15326
2.5399
2.68215
2.76682
2.80063
2.82262
2.82468
2.82581
2.83023
2.83371
2.8343
2.83476
2.83631
2.83961
2.84245
2.84253
2.84188
2.84157
2.84148
2.84149
2.84097
2.84017
2.83967
2.83956
2.83944
2.83904
2.83888
2.83893
2.839
2.8386
2.83744
2.83571
2.83375
2.8327
2.8324
2.83234
2.83248
2.83294
2.83342
2.83311
2.83231
2.83138
2.83005
2.82787
2.82465
2.82022
2.81425
2.80689
2.79726
2.78776
2.77325
1.40001
1.40001
1.40001
1.40001
1.40001
1.40001
1.40001
1.40001
1.40001
1.40001
1.40001
1.40001
1.40001
1.40001
1.40001
1.40001
1.40001
1.40001
1.40001
1.40001
1.40001
1.40001
1.40001
1.4
1.4
1.4
1.40007
1.40141
1.4235
1.52087
1.82303
2.2477
2.63262
2.77243
2.81168
2.82259
2.82859
2.83478
2.83571
2.8344
2.83336
2.83503
2.84003
2.84351
2.84382
2.84309
2.84222
2.84182
2.8417
2.8418
2.84239
2.84282
2.84289
2.84271
2.84193
2.84144
2.84158
2.84188
2.84175
2.84074
2.83882
2.83658
2.83529
2.83494
2.8349
2.83526
2.83599
2.83629
2.83601
2.83528
2.8342
2.83268
2.83033
2.82697
2.82227
2.81596
2.80831
2.79816
2.78836
2.77378
1.40001
1.40001
1.40001
1.40001
1.40001
1.40001
1.40001
1.40001
1.40001
1.40001
1.40001
1.40001
1.40001
1.40001
1.40001
1.40001
1.40001
1.40001
1.40001
1.40001
1.40001
1.40001
1.40001
1.40001
1.40001
1.4
1.4
1.40001
1.40019
1.40289
1.43816
1.59043
1.9451
2.37136
2.68635
2.80903
2.85095
2.85709
2.85349
2.8481
2.84667
2.84653
2.84802
2.84934
2.84969
2.84869
2.84652
2.84499
2.84493
2.84524
2.84572
2.8461
2.84615
2.84563
2.84463
2.84377
2.84369
2.8441
2.84424
2.84358
2.8416
2.83919
2.83773
2.83735
2.83744
2.83822
2.83898
2.83905
2.8389
2.83822
2.83696
2.8353
2.83292
2.82957
2.82472
2.81827
2.81038
2.80028
2.79002
2.7748
1.40001
1.40001
1.40001
1.40001
1.40001
1.40001
1.40001
1.40001
1.40001
1.40001
1.40001
1.40001
1.40001
1.40001
1.40001
1.40001
1.40001
1.40001
1.40001
1.40001
1.40001
1.40001
1.40001
1.40001
1.40001
1.40001
1.40001
1.40001
1.4
1.40001
1.40051
1.40712
1.46626
1.69586
2.10292
2.45867
2.71868
2.82092
2.84072
2.84211
2.84647
2.84893
2.84829
2.84858
2.84931
2.84864
2.8472
2.8465
2.8467
2.84734
2.84761
2.84782
2.84785
2.84738
2.8467
2.84595
2.84545
2.8457
2.84597
2.84539
2.84345
2.84118
2.83972
2.83941
2.83966
2.8407
2.84145
2.8416
2.84158
2.84109
2.83976
2.83796
2.83546
2.83204
2.82703
2.82067
2.81261
2.80298
2.79286
2.77654
1.40001
1.40001
1.40001
1.40001
1.40001
1.40001
1.40001
1.40001
1.40001
1.40001
1.40001
1.40001
1.40001
1.40001
1.40001
1.40001
1.40001
1.40001
1.40001
1.40001
1.40001
1.40001
1.40001
1.40001
1.40001
1.40001
1.40001
1.40001
1.4
1.4
1.4
1.40003
1.40133
1.41715
1.51571
1.8373
2.30585
2.61522
2.72689
2.79211
2.82389
2.83074
2.82975
2.83369
2.83845
2.84073
2.84203
2.84402
2.84579
2.84601
2.84618
2.84683
2.8475
2.84792
2.84805
2.84772
2.847
2.84686
2.84691
2.84625
2.84461
2.84271
2.84146
2.84128
2.84156
2.84255
2.84346
2.84378
2.84387
2.8436
2.84242
2.84051
2.83776
2.83416
2.82903
2.82278
2.81469
2.80588
2.79595
2.77917
1.40001
1.40001
1.40001
1.40001
1.40001
1.40001
1.40001
1.40001
1.40001
1.40001
1.40001
1.40001
1.40001
1.40001
1.40001
1.40001
1.40001
1.40001
1.40001
1.40001
1.40001
1.40001
1.40001
1.40001
1.40001
1.40001
1.40001
1.40001
1.40001
1.40001
1.40001
1.4
1.40001
1.40013
1.40364
1.44541
1.61223
2.02005
2.46408
2.73981
2.81427
2.83098
2.82965
2.83482
2.83813
2.83911
2.84175
2.84544
2.84666
2.84609
2.84553
2.84609
2.84746
2.84861
2.84939
2.84928
2.84859
2.84776
2.84717
2.84641
2.84526
2.84393
2.84307
2.84299
2.84326
2.84406
2.84503
2.84553
2.84568
2.84558
2.84469
2.84275
2.8398
2.83595
2.8308
2.82441
2.81652
2.80856
2.79801
2.78223
1.40001
1.40001
1.40001
1.40001
1.40001
1.40001
1.40001
1.40001
1.40001
1.40001
1.40001
1.40001
1.40001
1.40001
1.40001
1.40001
1.40001
1.40001
1.40001
1.40001
1.40001
1.40001
1.40001
1.40001
1.40001
1.40001
1.40001
1.40001
1.40001
1.40001
1.40001
1.40001
1.40001
1.4
1.40002
1.40071
1.41034
1.50372
1.78466
2.23121
2.63305
2.7855
2.83844
2.85582
2.85391
2.84872
2.84967
2.85317
2.85293
2.84982
2.84694
2.84693
2.84787
2.8492
2.85038
2.85035
2.84971
2.84863
2.84748
2.84645
2.84546
2.84463
2.84427
2.84428
2.84454
2.84502
2.8458
2.84645
2.84666
2.84663
2.84611
2.84453
2.84159
2.83754
2.8323
2.82558
2.81801
2.80977
2.79904
2.78827
1.40001
1.40001
1.40001
1.40001
1.40001
1.40001
1.40001
1.40001
1.40001
1.40001
1.40001
1.40001
1.40001
1.40001
1.40001
1.40001
1.40001
1.40001
1.40001
1.40001
1.40001
1.40001
1.40001
1.40001
1.40001
1.40001
1.40001
1.40001
1.40001
1.40001
1.40001
1.40001
1.40001
1.40001
1.4
1.40001
1.40009
1.40322
1.43468
1.62165
2.03279
2.42911
2.689
2.82036
2.83859
2.83446
2.83934
2.84896
2.84997
2.84706
2.84391
2.84353
2.84536
2.84788
2.84993
2.85003
2.84955
2.84873
2.84766
2.84641
2.84525
2.84468
2.84469
2.84491
2.84532
2.84572
2.8463
2.84697
2.84736
2.84744
2.84722
2.84581
2.84291
2.83881
2.83374
2.8265
2.81901
2.80945
2.7985
2.81145
1.40001
1.40001
1.40001
1.40001
1.40001
1.40001
1.40001
1.40001
1.40001
1.40001
1.40001
1.40001
1.40001
1.40001
1.40001
1.40001
1.40001
1.40001
1.40001
1.40001
1.40001
1.40001
1.40001
1.40001
1.40001
1.40001
1.40001
1.40001
1.40001
1.40001
1.40001
1.40001
1.40001
1.40001
1.40001
1.40001
1.4
1.40002
1.40059
1.41263
1.49379
1.82353
2.29692
2.68224
2.75586
2.79493
2.81415
2.83416
2.84169
2.84013
2.83894
2.83967
2.84182
2.84448
2.84799
2.84964
2.84959
2.84918
2.8483
2.84663
2.84491
2.8445
2.84464
2.84519
2.84612
2.84695
2.84751
2.84791
2.84801
2.84793
2.84736
2.84593
2.84343
2.83978
2.83496
2.82767
2.81899
2.80951
2.79828
2.90133
1.40001
1.40001
1.40001
1.40001
1.40001
1.40001
1.40001
1.40001
1.40001
1.40001
1.40001
1.40001
1.40001
1.40001
1.40001
1.40001
1.40001
1.40001
1.40001
1.40001
1.40001
1.40001
1.40001
1.40001
1.40001
1.40001
1.40001
1.40001
1.40001
1.40001
1.40001
1.40001
1.40001
1.40001
1.40001
1.40001
1.40001
1.4
1.40001
1.40012
1.40303
1.45141
1.64631
2.08768
2.56697
2.75769
2.81947
2.85138
2.84895
2.84569
2.84705
2.84726
2.84588
2.84527
2.84722
2.84948
2.85021
2.85056
2.85013
2.84832
2.84573
2.84444
2.84471
2.84559
2.84689
2.84838
2.84928
2.84936
2.84913
2.84837
2.84718
2.8456
2.84345
2.84035
2.83599
2.8287
2.81927
2.80886
2.80674
3.16857
1.40001
1.40001
1.40001
1.40001
1.40001
1.40001
1.40001
1.40001
1.40001
1.40001
1.40001
1.40001
1.40001
1.40001
1.40001
1.40001
1.40001
1.40001
1.40001
1.40001
1.40001
1.40001
1.40001
1.40001
1.40001
1.40001
1.40001
1.40001
1.40001
1.40001
1.40001
1.40001
1.40001
1.40001
1.40001
1.40001
1.40001
1.40001
1.40001
1.4
1.40002
1.40118
1.41674
1.54196
1.92655
2.37309
2.69774
2.82967
2.84214
2.84191
2.85258
2.85578
2.85256
2.84896
2.84699
2.84782
2.84976
2.851
2.85087
2.84988
2.84735
2.84476
2.8441
2.84472
2.84632
2.84865
2.85013
2.85036
2.85013
2.84887
2.84674
2.84491
2.84316
2.84053
2.83646
2.82962
2.81842
2.81821
2.89088
3.69428
1.40001
1.40001
1.40001
1.40001
1.40001
1.40001
1.40001
1.40001
1.40001
1.40001
1.40001
1.40001
1.40001
1.40001
1.40001
1.40001
1.40001
1.40001
1.40001
1.40001
1.40001
1.40001
1.40001
1.40001
1.40001
1.40001
1.40001
1.40001
1.40001
1.40001
1.40001
1.40001
1.40001
1.40001
1.40001
1.40001
1.40001
1.40001
1.40001
1.40001
1.4
1.40001
1.40023
1.40671
1.4732
1.78561
2.26614
2.65566
2.73689
2.78163
2.82293
2.84627
2.84747
2.84568
2.8418
2.84164
2.84384
2.84758
2.85011
2.84947
2.84799
2.84517
2.84318
2.84346
2.84471
2.84732
2.84982
2.85032
2.85017
2.84891
2.84638
2.84418
2.84293
2.84084
2.83657
2.82899
2.82582
2.89604
3.34551
4.31198
1.40001
1.40001
1.40001
1.40001
1.40001
1.40001
1.40001
1.40001
1.40001
1.40001
1.40001
1.40001
1.40001
1.40001
1.40001
1.40001
1.40001
1.40001
1.40001
1.40001
1.40001
1.40001
1.40001
1.40001
1.40001
1.40001
1.40001
1.40001
1.40001
1.40001
1.40001
1.40001
1.40001
1.40001
1.40001
1.40001
1.40001
1.40001
1.40001
1.40001
1.40001
1.40001
1.40001
1.40007
1.40253
1.44493
1.62677
2.09328
2.59928
2.75337
2.82014
2.84802
2.84958
2.84951
2.84661
2.84144
2.84036
2.84286
2.84835
2.85022
2.84997
2.84753
2.84406
2.84349
2.84424
2.84657
2.84926
2.84989
2.84981
2.8487
2.84628
2.84399
2.84163
2.83919
2.83506