/*--------------------------------*- C++ -*----------------------------------*\
| =========                 |                                                 |
| \\      /  F ield         | OpenFOAM: The Open Source CFD Toolbox           |
|  \\    /   O peration     | Version:  2206                                  |
|   \\  /    A nd           | Website:  www.openfoam.com                      |
|    \\/     M anipulation  |                                                 |
\*---------------------------------------------------------------------------*/
FoamFile
{
    version     2.0;
    format      ascii;
    arch        "LSB;label=32;scalar=64";
    class       volScalarField;
    location    "0.2";
    object      T;
}
// * * * * * * * * * * * * * * * * * * * * * * * * * * * * * * * * * * * * * //

dimensions      [0 0 0 1 0 0 0];

internalField   nonuniform List<scalar> 
4800
(
1
1
1
1
1
1
1
1
1
1
1
1
1
1
1
1
1
1
1
1
1
1
1
1
1
1
1
1
1
1
1
1
1
1
1
1
1
1
1
1
1
1
1
1
1
1
1
1
1
1
1
1
1
1
1
1
1
1
1
1
1
1
1
1
1
1
1
1
1
1
1
1
1
1
1
1
1
1
1
1
1
1
1
1
1
1
1
1
1
1
1
1
1
1
1
1
1
1
1
1
1
1
1
1
1
1
1
1
1
1
1
1
1
1
1
1
1
1
1
1
1
1
1
1
1
1
1
1
1
1
1
1
1
1
1
1
1
1
1
1
1
1
1
1
1
1
1
1
1
1
1
1
1
1
1
1
1
1
1
1
1
1
1
1
1
1
1
1
1
1
1
1
1
1
1
1
1
1
1
1
1
1
1
1
1
1
1
1
1
1
1
1
1
1
1
1
1
1
1
1
1
1
1
1
1
1
1
1
1
1
1
1
1
1
1
1
1
1
1
1
1
1
1
1
1
1
1
1
1
1
1
1
1
1
1
1
1
1
1
1
1
1
1
1
1
1
1
1
1
1
1
1
1
1
1
1
1
1
1
1
1
1
1
1
1
1
1
1
1
1
1
1
1
1
1
1
1
1
1
1
1
1
1
1
1
1
1
1
1
1
1
1
1
1
1
1
1
1
1
1
1
1
1
1
1
1
1
1
1
1
1
1
1
1
1
1
1
1
1
1
1
1
1
1
1
1
1
1
1
1
1
1
1
1
1
1
1
1
1
1
1
1
1
1
1
1
1
1
1
1
1
1
1
1
1
1
1
1
1
1
1
1
1
1
1
1
1
1
1
1
1
1
1
1
1
1
1
1
1
1
1
1
1
1
1
1
1
1
1
1
1
1
1
1
1
1
1
1
1
1
1
1
1
1
1
1
1
1
1
1
1
1
1
1
1
1
1
1
1
1
1
1
1
1
1
1
1
1
1
1
1
1
1
1
1
1
1
1
1
1
1
1
1
1
1
1
1
1
1
1
1
1
1
1
1
1
1
1
1
1
1
1
1
1
1
1
1
1
1
1
1
1
1
1
1
1
1
1
1
1
1
1
1
1
1
1
1
1
1
1
1
1
1
1
1
1
1
1
1
1
1
1
1
1
1
1
1
1
1
1
1
1
1
1
1
1
1
1
1
1
1
1
1
1
1
1
1
1
1
1
1
1
1
1
1
1
1
1
1
1
1
1
1
1
1
1
1
1
1
1
1
1
1
1
1
1
1
1
1
1
1
1
1
1
1
1
1
1
1
1
1
1
1
1
1
1
1
1
1
1
1
1
1
1
1
1
1
1
1
1
1
1
1
1
1
1
1
1
1
1
1
1
1
1
1
1
1
1
1
1
1
1
1
1
1
1
1
1
1
1
1
1
1
1
1
1
1
1
1
1
1
1
1
1
1
1
1
1
1
1
1
1
1
1
1
1
1
1
1
1
1
1
1
1
1
1
1
1
1
1
1
1
1
1
1
1
1
1
1
1
1
1
1
1
1
1
1
1
1
1
1
1
1
1
1
1
1
1
1
1
1
1
1
1
1
1
1
1
1
1
1
1
1
1
1
1
1
1
1
1
1
1
1
1
1
1
1
1
1
1
1
1
1
1
1
1
1
1
1
1
1
1
1
1
1
1
1
1
1
1
1
1
1
1
1
1
1
1
1
1
1
1
1
1
1
1
1
1
1
1
1
1
1
1
1
1
1
1
1
1
1
1
1
1
1
1
1
1
1
1
1
1
1
1
1
1
1
1
1
1
1
1
1
1
1
1
1
1
1
1
1
1
1
1
1
1
1
1
1
1
1
1
1
1
1
1
1
1
1
1
1
1
1
1
1
1
1
1
1
1
1
1
1
1
1
1
1
1
1
1
1
1
1
1
1
1
1
1
1
1
1
1
1
1
1
1
1
1
1
1
1
1
1
1
1
1
1
1
1
1
1
1
1
1
1
1
1
1
1
1
1
1
1
1
1
1
1
1
1
1
1
1
1
1
1
1
1
1
1
1
1
1
1
1
1
1
1
1
1
1
1
1
1
1
1
1
1
1
1
1
1
1
1
1
1
1
1
1
1
1
1
1
1
1
1
1
1
1
1
1
1
1
1
1
1
1
1
1
1
1
1
1
1
1
1
1
1
1
1
1
1
1
1
1
1
1
1
1
1
1
1
1
1
1
1
1
1
1
1
1
1
1
1
1
1
1
1
1
1
1
1
1
1
1
1
1
1
1
1
1
1
1
1
1
1
1
1
1
1
1
1
1
1
1
1
1
1
1
1
1
1
1
1
1
1
1
1
1
1
1
1
1
1
1
1
1
1
1
1
1
1
1
1
1
1
1
1
1
1
1
1
1
1
1
1
1
1
1
1
1
1
1
1
1
1
1
1
1
1
1
1
1
1
1
1
1
1
1
1
1
1
1
1
1
1
1
1
1
1
1
1
1
1
1
1
1
1
1
1
1
1
1
1
1
1
1
1
1
1
1
1
1
1
1
1
1
1
1
1
1
1
1
1
1
1
1
1
1
1
1
1
1
1
1
1
1
1
1
1
1
1
1
1
1
1
1
1
1
1
1
1
1
1
1
1
1
1
1
1
1
1
1
1
1
1
1
1
1
1
1
1
1
1
1
1
1
1
1
1
1
1
1
1
1
1
1
1
1
1
1
1
1
1
1
1
1
1
1
1
1
1
1
1
1
1
1
1
1
1
1
1
1
1
1
1
1
1
1
1
1
1
1
1
1
1
1
1
1
1
1
1
1
1
1
1
1
1
1
1
1
1
1
1
1
1
1
1
1
1
1
1
1
1
1
1
1
1
1
1
1
1
1
1
1
1
1
1
1
1
1
1
1
1
1
1
1
1
1
1
1
1
1
1
1
1
1
1
1
1
1
1
1
1
1
1
1
1
1
1
1
1
1
1
1
1
1
1
1
1
1
1
1
1
1
1
1
1
1
1
1
1
1
1
1
1
1
1
1
1
1
1
1
1
1
1
1
1
1
1
1
1
1
1
1
1
1
1
1
1
1
1
1
1
1
1
1
1
1
1
1
1
1
1
1
1
1
1
1
1
1
1
1
1
1
1
1
1
1
1
1
1
1
1
1
1
1
1
1
1
1
1
1
1
1
1
1
1
1
1
1
1
1
1
1
1
1
1
1
1
1
1
1
1
1
1
1
1
1
1
1
1
1
1
1
1
1
1
1
1
1
1
1
1
1
1
1
1
1
1
1
1
1
1
1
1
1
1
1
1
1
1
1
1
1
1
1
1
1
1
1
1
1
1
1
1
1
1
1
1
1
1
1
1
1
1
1
1
1
1
1
1
1
1
1
1
1
1
1
1
1
1
1
1
1
1
1
1
1
1
1
1
1
1
1
1
1
1
1
1
1
1
1
1
1
1
1
1
1
1
1
1
1
1
1
1
1
1
1
1
1
1
1
1
1
1
1
1
1
1
1
1
1
1
1
1
1
1
1
1
1
1
1
1
1
1
1
1
1
1
1
1
1
1
1
1
1
1
1
1
1
1
1
1
1
1
1
1
1
1
1
1
1
1
1
1
1
1
1
1
1
1
1
1
1
1
1
1
1
1
1
1.07533
1.16999
1.26837
1.34379
1.41029
1.45941
1.49054
1.48751
1.46973
1.43868
1.40511
1.3857
1.37492
1.36812
1.36829
1.37127
1.37592
1.37984
1.38012
1.37938
1.37928
1.38046
1.3824
1.38402
1.38506
1.38554
1.38544
1.38509
1.38461
1.38431
1.38423
1.38435
1.38464
1.38507
1.38571
1.38632
1.38659
1.38675
1.38693
1.38697
1.38688
1.38663
1.38626
1.38611
1.38619
1.38645
1.38693
1.38729
1.38728
1.38727
1.38724
1.38706
1.3867
1.38647
1.38646
1.38649
1.38658
1.38682
1.38719
1.38748
1.38759
1.38762
1.3876
1.38745
1.3872
1.38707
1.38706
1.38707
1.38709
1.3872
1.38733
1.3873
1.38719
1.387
1.38662
1.38603
1.38515
1.38385
1.38246
1.37971
1.00329
1.0173
1.04716
1.10441
1.16469
1.22912
1.29062
1.33806
1.3629
1.38758
1.40421
1.39996
1.39468
1.39167
1.38592
1.38312
1.38141
1.38007
1.37998
1.38056
1.3822
1.38398
1.3851
1.38548
1.38578
1.38639
1.38675
1.38673
1.38661
1.38635
1.38597
1.38579
1.38584
1.38605
1.38668
1.38732
1.38749
1.38752
1.38749
1.38737
1.38719
1.38698
1.38675
1.38671
1.38679
1.38702
1.38738
1.3877
1.38773
1.38774
1.38773
1.38758
1.38723
1.38701
1.38701
1.38706
1.38718
1.38744
1.38776
1.38793
1.38795
1.38794
1.38787
1.38768
1.38746
1.3874
1.38741
1.38741
1.38745
1.38756
1.38763
1.38757
1.38744
1.38723
1.38683
1.38613
1.38515
1.38377
1.38232
1.37948
1
1.00008
1.00058
1.00354
1.01283
1.04272
1.10237
1.20604
1.31657
1.38808
1.42583
1.42951
1.42547
1.41741
1.40597
1.39056
1.38586
1.38424
1.38502
1.38657
1.38785
1.38808
1.38829
1.38857
1.38917
1.39018
1.3911
1.39111
1.39103
1.39077
1.39009
1.38933
1.3892
1.38926
1.38961
1.39009
1.39017
1.39013
1.39002
1.38974
1.3894
1.38907
1.38881
1.38871
1.38873
1.38887
1.38914
1.38942
1.38948
1.38947
1.38943
1.38919
1.38876
1.38851
1.3885
1.38853
1.38863
1.38885
1.38907
1.38913
1.3891
1.38904
1.38891
1.3887
1.38848
1.38839
1.38835
1.38834
1.38836
1.38845
1.38846
1.38837
1.38818
1.3879
1.38741
1.38663
1.38558
1.38415
1.38264
1.37974
1
1
1
1
1.00004
1.00047
1.00307
1.01972
1.09178
1.20365
1.32494
1.3798
1.41116
1.40828
1.407
1.40944
1.40781
1.40252
1.39935
1.39463
1.39132
1.38977
1.39039
1.39233
1.39422
1.39534
1.39585
1.39564
1.39536
1.39506
1.39455
1.39408
1.3938
1.39368
1.39374
1.394
1.39405
1.39398
1.39384
1.39344
1.39286
1.39247
1.39221
1.39201
1.39196
1.39198
1.39216
1.39236
1.39238
1.39232
1.39216
1.39182
1.39134
1.39107
1.39105
1.39104
1.39106
1.3912
1.39132
1.39127
1.39114
1.39099
1.39077
1.3905
1.39029
1.39018
1.39009
1.39002
1.39
1.39002
1.38999
1.38983
1.38956
1.38919
1.38859
1.38773
1.38659
1.38505
1.38345
1.38045
1
1
1
1
1
1
1
1.00008
1.00194
1.01433
1.07768
1.19133
1.31278
1.37652
1.41175
1.42575
1.42292
1.41789
1.40791
1.397
1.39153
1.39164
1.39309
1.39552
1.39753
1.39749
1.3971
1.39672
1.39656
1.39659
1.39684
1.39725
1.39738
1.39714
1.39687
1.39691
1.39706
1.39705
1.39699
1.3967
1.39613
1.39574
1.39544
1.39517
1.39514
1.39522
1.39538
1.39544
1.39543
1.39531
1.39502
1.39458
1.39413
1.39395
1.39393
1.39389
1.39388
1.39394
1.39397
1.39383
1.39359
1.39339
1.39313
1.39282
1.3926
1.39246
1.39232
1.39224
1.39221
1.3922
1.3921
1.39186
1.39151
1.39105
1.39037
1.38942
1.38819
1.38658
1.3849
1.38178
1
1
1
1
1
1
1
1
1
1.00004
1.0013
1.014
1.06403
1.18488
1.29222
1.38395
1.39868
1.40433
1.4083
1.40394
1.39851
1.39831
1.39802
1.39818
1.39823
1.39765
1.39725
1.39709
1.39716
1.39736
1.3978
1.39859
1.39896
1.39881
1.39851
1.39847
1.39863
1.39865
1.39872
1.3987
1.39835
1.39803
1.3977
1.39741
1.3974
1.39765
1.39782
1.39783
1.39782
1.39766
1.39727
1.39676
1.39641
1.39634
1.39637
1.39639
1.39637
1.39637
1.39632
1.39612
1.39588
1.39569
1.39544
1.39515
1.39496
1.39476
1.39459
1.39454
1.39456
1.39455
1.3944
1.39409
1.39368
1.39314
1.39237
1.39135
1.39004
1.38836
1.38664
1.38343
1
1
1
1
1
1
1
1
1
1
1
1.00005
1.0009
1.01357
1.06205
1.16917
1.28292
1.3643
1.39957
1.40978
1.409
1.40718
1.40314
1.39945
1.39815
1.39761
1.39742
1.3972
1.39716
1.3974
1.39791
1.39891
1.39951
1.39947
1.39932
1.39937
1.39946
1.39936
1.39943
1.39942
1.39919
1.399
1.39871
1.39847
1.39847
1.39876
1.39899
1.39899
1.39893
1.39873
1.39825
1.3978
1.39768
1.39768
1.39773
1.39784
1.39785
1.39783
1.39781
1.39765
1.39744
1.39728
1.39709
1.39686
1.3967
1.39652
1.39641
1.39642
1.39653
1.39654
1.39639
1.39607
1.39563
1.39503
1.39421
1.39315
1.3918
1.39012
1.38837
1.3851
1
1
1
1
1
1
1
1
1
1
1
1
1
1.00005
1.001
1.01041
1.06692
1.16359
1.27321
1.34433
1.39277
1.40162
1.40255
1.4015
1.40092
1.39895
1.39844
1.39788
1.39753
1.39766
1.39796
1.39819
1.39872
1.39907
1.39914
1.39919
1.39902
1.39891
1.39895
1.39893
1.39877
1.39865
1.39847
1.39839
1.39846
1.39883
1.39923
1.39926
1.39919
1.39893
1.39841
1.3981
1.3981
1.39813
1.39822
1.3984
1.39844
1.39846
1.39847
1.39833
1.39816
1.39803
1.39788
1.39774
1.39761
1.3975
1.39748
1.39755
1.39775
1.39779
1.39765
1.39739
1.39696
1.39632
1.39549
1.39444
1.39309
1.39143
1.38968
1.38642
1
1
1
1
1
1
1
1
1
1
1
1
1
1
1
1.00004
1.00131
1.01017
1.06415
1.16699
1.28224
1.33665
1.37584
1.39496
1.39779
1.39767
1.39457
1.39458
1.39458
1.39433
1.39474
1.39511
1.39575
1.39659
1.39703
1.3975
1.39761
1.39768
1.39773
1.39769
1.39754
1.39748
1.3975
1.39763
1.39796
1.3985
1.39882
1.39882
1.39874
1.39848
1.39804
1.39788
1.39791
1.39799
1.39812
1.39834
1.39852
1.39863
1.39862
1.39848
1.39836
1.39825
1.39811
1.39803
1.39794
1.39788
1.39789
1.39803
1.39829
1.39833
1.39825
1.39806
1.39765
1.397
1.39617
1.39515
1.39381
1.39215
1.39042
1.3872
1
1
1
1
1
1
1
1
1
1
1
1
1
1
1
1
1
1.00004
1.00149
1.01283
1.06271
1.17069
1.2739
1.35112
1.37128
1.38319
1.38677
1.38904
1.3899
1.38986
1.39019
1.39079
1.39149
1.39235
1.39315
1.39399
1.39463
1.39488
1.39507
1.39528
1.39543
1.39552
1.39569
1.39604
1.39659
1.39725
1.39757
1.3976
1.39755
1.3974
1.39718
1.39714
1.39724
1.39743
1.39765
1.39793
1.39816
1.39829
1.39828
1.3982
1.39817
1.39811
1.39803
1.398
1.39795
1.3979
1.39792
1.3981
1.39838
1.39843
1.39839
1.39827
1.39787
1.39719
1.39637
1.39538
1.39405
1.3924
1.39068
1.38755
1
1
1
1
1
1
1
1
1
1
1
1
1
1
1
1
1
1
1
1.00007
1.00135
1.01606
1.06387
1.17414
1.2809
1.35711
1.38031
1.38614
1.38994
1.38957
1.38962
1.38981
1.39005
1.39044
1.39087
1.39141
1.392
1.39249
1.39271
1.39302
1.39346
1.39366
1.39387
1.39423
1.39479
1.39543
1.39575
1.39584
1.39585
1.39581
1.39575
1.39578
1.39598
1.39629
1.3966
1.39694
1.39725
1.39747
1.39748
1.39749
1.39756
1.39759
1.3976
1.39764
1.39766
1.39766
1.39773
1.39794
1.39823
1.39828
1.39827
1.39818
1.39783
1.39717
1.39632
1.39531
1.39401
1.39234
1.39063
1.38763
1
1
1
1
1
1
1
1
1
1
1
1
1
1
1
1
1
1
1
1
1
1.00012
1.00156
1.01865
1.0803
1.18755
1.2857
1.3549
1.37943
1.38995
1.39129
1.39216
1.3921
1.3921
1.39183
1.39146
1.39151
1.39202
1.39234
1.39235
1.39258
1.39273
1.3928
1.393
1.39336
1.39388
1.39415
1.39436
1.39444
1.39442
1.39435
1.39435
1.39452
1.39488
1.39528
1.39566
1.39595
1.39614
1.3962
1.39628
1.39643
1.39655
1.39666
1.39682
1.39694
1.39701
1.39714
1.39742
1.39773
1.39784
1.39784
1.39777
1.3975
1.39697
1.39616
1.39509
1.39373
1.39206
1.3904
1.38754
1
1
1
1
1
1
1
1
1
1
1
1
1
1
1
1
1
1
1
1
1
1
1
1.0002
1.00271
1.02226
1.09993
1.20583
1.29179
1.3497
1.37753
1.38633
1.38984
1.38973
1.39014
1.3897
1.38934
1.38971
1.39049
1.39077
1.39112
1.39118
1.3911
1.39115
1.39137
1.39174
1.3922
1.39259
1.39277
1.39275
1.39264
1.39263
1.3928
1.3932
1.3937
1.39417
1.39449
1.39468
1.39475
1.39482
1.39491
1.39502
1.39522
1.39551
1.39576
1.39596
1.39619
1.39653
1.39679
1.397
1.39709
1.39706
1.39687
1.39642
1.39568
1.39462
1.39327
1.39154
1.38986
1.38717
1
1
1
1
1
1
1
1
1
1
1
1
1
1
1
1
1
1
1
1
1
1
1
1
1.00001
1.00028
1.00474
1.02813
1.11479
1.2298
1.31946
1.35202
1.37178
1.37956
1.38355
1.38364
1.38407
1.38574
1.38741
1.388
1.3882
1.38838
1.38868
1.3891
1.38944
1.38983
1.39042
1.39084
1.39093
1.39087
1.39077
1.39079
1.39102
1.3915
1.39202
1.3925
1.39283
1.39304
1.39312
1.39316
1.39318
1.39322
1.39344
1.39385
1.39422
1.39455
1.3949
1.39529
1.39557
1.39584
1.39598
1.39597
1.39586
1.39551
1.39485
1.39384
1.39253
1.39079
1.3891
1.38656
1
1
1
1
1
1
1
1
1
1
1
1
1
1
1
1
1
1
1
1
1
1
1
1
1
1
1.00002
1.00044
1.00781
1.04182
1.13818
1.25356
1.34421
1.37305
1.37913
1.38142
1.38313
1.38568
1.38669
1.38662
1.38645
1.3866
1.38705
1.3876
1.38823
1.38869
1.38916
1.38937
1.38935
1.38932
1.38935
1.38945
1.38975
1.39024
1.3907
1.39104
1.39132
1.39152
1.39158
1.39157
1.39153
1.39152
1.3917
1.39214
1.3926
1.39302
1.39342
1.39378
1.39408
1.3944
1.39463
1.39465
1.39458
1.3943
1.3937
1.39273
1.39148
1.38975
1.3881
1.38568
1
1
1
1
1
1
1
1
1
1
1
1
1
1
1
1
1
1
1
1
1
1
1
1
1
1
1
1
1.00005
1.00092
1.01267
1.06556
1.17391
1.28281
1.35406
1.3799
1.38746
1.38981
1.38954
1.38882
1.38823
1.38783
1.38776
1.38795
1.38869
1.3891
1.38914
1.38903
1.38894
1.38878
1.38865
1.38869
1.38899
1.38946
1.38985
1.38999
1.39006
1.39019
1.39026
1.39023
1.39014
1.39013
1.39025
1.39065
1.39115
1.39161
1.39195
1.39223
1.39254
1.39285
1.3931
1.39319
1.39314
1.39291
1.39235
1.39141
1.39017
1.38855
1.38692
1.38453
1
1
1
1
1
1
1
1
1
1
1
1
1
1
1
1
1
1
1
1
1
1
1
1
1
1
1
1
1
1
1.00015
1.0023
1.02224
1.10064
1.21435
1.30204
1.35962
1.3823
1.38729
1.38732
1.38743
1.3874
1.38709
1.38726
1.38797
1.3885
1.38866
1.3886
1.38844
1.38822
1.38809
1.38815
1.38845
1.38894
1.38926
1.38928
1.38919
1.38918
1.3892
1.38913
1.38904
1.38905
1.38917
1.38949
1.38994
1.39035
1.39061
1.39085
1.39114
1.39144
1.3917
1.3918
1.39175
1.3915
1.39089
1.38996
1.38871
1.38723
1.38569
1.3832
1
1
1
1
1
1
1
1
1
1
1
1
1
1
1
1
1
1
1
1
1
1
1
1
1
1
1
1
1
1
1
1.00001
1.0004
1.00567
1.03894
1.14322
1.26576
1.33744
1.36153
1.37657
1.38277
1.3836
1.38331
1.3842
1.38566
1.38671
1.38727
1.38765
1.38761
1.38735
1.38726
1.38744
1.38791
1.38855
1.38884
1.38881
1.38863
1.38846
1.3884
1.38829
1.38828
1.38832
1.38845
1.38871
1.38902
1.3893
1.38953
1.38973
1.39001
1.39032
1.39057
1.39062
1.39052
1.39019
1.38949
1.38853
1.38724
1.38592
1.38444
1.38188
1
1
1
1
1
1
1
1
1
1
1
1
1
1
1
1
1
1
1
1
1
1
1
1
1
1
1
1
1
1
1
1
1
1.00004
1.00113
1.01527
1.07156
1.19385
1.30525
1.36641
1.38064
1.38323
1.38311
1.3845
1.38581
1.38626
1.38687
1.38741
1.38726
1.38689
1.38677
1.38701
1.38767
1.38836
1.38863
1.38858
1.38834
1.38798
1.38781
1.38778
1.38779
1.38789
1.38804
1.38823
1.3884
1.38854
1.38872
1.38892
1.38917
1.3895
1.38971
1.3897
1.38951
1.38906
1.38826
1.38721
1.38591
1.38473
1.38309
1.38082
1
1
1
1
1
1
1
1
1
1
1
1
1
1
1
1
1
1
1
1
1
1
1
1
1
1
1
1
1
1
1
1
1
1
1
1.00021
1.0033
1.03528
1.125
1.24804
1.34277
1.37539
1.3856
1.38915
1.38894
1.3881
1.38827
1.38868
1.38844
1.38758
1.38707
1.38719
1.38774
1.38834
1.38859
1.38853
1.38823
1.3878
1.38755
1.38751
1.38753
1.38763
1.38779
1.38791
1.38796
1.38799
1.38809
1.38829
1.38856
1.38888
1.38902
1.38899
1.38874
1.38816
1.38726
1.38608
1.38481
1.38355
1.38179
1.38069
1
1
1
1
1
1
1
1
1
1
1
1
1
1
1
1
1
1
1
1
1
1
1
1
1
1
1
1
1
1
1
1
1
1
1
1
1.00002
1.001
1.01131
1.07528
1.19478
1.29573
1.3541
1.38236
1.38639
1.38548
1.38632
1.38784
1.38789
1.38719
1.38664
1.38667
1.38729
1.38798
1.38836
1.38831
1.38802
1.38768
1.38749
1.38739
1.38737
1.38742
1.38753
1.38763
1.38766
1.38765
1.38771
1.3879
1.38819
1.38849
1.3886
1.38852
1.38817
1.38748
1.38654
1.38521
1.38394
1.38241
1.3807
1.38382
1
1
1
1
1
1
1
1
1
1
1
1
1
1
1
1
1
1
1
1
1
1
1
1
1
1
1
1
1
1
1
1
1
1
1
1
1
1
1.00017
1.00408
1.03125
1.13807
1.26522
1.35338
1.36849
1.37694
1.38122
1.38507
1.38639
1.38607
1.38592
1.38613
1.3867
1.38728
1.38788
1.38807
1.38796
1.38776
1.38761
1.38743
1.38726
1.38725
1.38732
1.38741
1.38753
1.38763
1.38771
1.38783
1.38805
1.38824
1.38824
1.38811
1.38771
1.38701
1.38607
1.3847
1.38322
1.38156
1.37985
1.40167
1
1
1
1
1
1
1
1
1
1
1
1
1
1
1
1
1
1
1
1
1
1
1
1
1
1
1
1
1
1
1
1
1
1
1
1
1
1
1
1.00003
1.00093
1.01706
1.08174
1.21116
1.32898
1.37093
1.38271
1.38847
1.38792
1.38739
1.38771
1.3879
1.38767
1.38751
1.38774
1.38802
1.38806
1.38809
1.38803
1.38778
1.38741
1.38719
1.38724
1.38736
1.38751
1.3877
1.38788
1.38801
1.38811
1.38808
1.38796
1.38772
1.38732
1.38669
1.38584
1.38445
1.38278
1.38068
1.38109
1.46371
1
1
1
1
1
1
1
1
1
1
1
1
1
1
1
1
1
1
1
1
1
1
1
1
1
1
1
1
1
1
1
1
1
1
1
1
1
1
1
1
1
1.00035
1.00533
1.0478
1.16559
1.28376
1.35695
1.38393
1.38699
1.38714
1.38932
1.38989
1.38921
1.38828
1.38764
1.38772
1.38804
1.3883
1.38829
1.38816
1.38775
1.38724
1.38706
1.38713
1.38733
1.3877
1.38802
1.38819
1.38821
1.38809
1.38774
1.38737
1.387
1.38645
1.38566
1.38436
1.38224
1.3824
1.39775
1.58088
1
1
1
1
1
1
1
1
1
1
1
1
1
1
1
1
1
1
1
1
1
1
1
1
1
1
1
1
1
1
1
1
1
1
1
1
1
1
1
1
1
1
1.00007
1.0021
1.02399
1.12724
1.25583
1.34537
1.36406
1.37483
1.38386
1.38812
1.38821
1.38759
1.38664
1.38661
1.38706
1.3878
1.38833
1.38822
1.38793
1.38733
1.38686
1.38687
1.38702
1.38748
1.38805
1.38825
1.38825
1.38806
1.38758
1.3871
1.38681
1.38636
1.38552
1.38404
1.38367
1.39827
1.48928
1.6821
1
1
1
1
1
1
1
1
1
1
1
1
1
1
1
1
1
1
1
1
1
1
1
1
1
1
1
1
1
1
1
1
1
1
1
1
1
1
1
1
1
1
1
1.00002
1.00076
1.01484
1.07475
1.21148
1.33659
1.37071
1.38352
1.38846
1.38837
1.38825
1.38766
1.38682
1.38668
1.38716
1.38818
1.38848
1.38839
1.38783
1.38708
1.38693
1.38704
1.38748
1.38806
1.38824
1.38823
1.38803
1.38751
1.38699
1.38647
1.38597
1.38512
1.38492
1.39716
1.48188
1.64017
1.73744
1
1
1
1
1
1
1
1
1
1
1
1
1
1
1
1
1
1
1
1
1
1
1
1
1
1
1
1
1
1
1
1
1
1
1
1
1
1
1
1
1
1
1
1
1
1.00031
1.0052
1.05094
1.18622
1.29901
1.36525
1.38836
1.38937
1.38997
1.39012
1.38835
1.38695
1.38698
1.38811
1.38903
1.389
1.38848
1.38768
1.38742
1.38746
1.38777
1.38818
1.38824
1.38822
1.388
1.38756
1.38702
1.3864
1.38571
1.38542
1.39392
1.47867
1.6352
1.72164
1.74781
1
1
1
1
1
1
1
1
1
1
1
1
1
1
1
1
1
1
1
1
1
1
1
1
1
1
1
1
1
1
1
1
1
1
1
1
1
1
1
1
1
1
1
1
1
1
1.00009
1.00288
1.03592
1.15061
1.28172
1.35048
1.36877
1.38472
1.38953
1.38723
1.38434
1.38458
1.3865
1.38858
1.38887
1.38848
1.38773
1.38753
1.38767
1.3881
1.38825
1.38824
1.38817
1.38796
1.38761
1.38715
1.38645
1.38597
1.39366
1.46564
1.625
1.73252
1.75597
1.75353
1
1
1
1
1
1
1
1
1
1
1
1
1
1
1
1
1
1
1
1
1
1
1
1
1
1
1
1
1
1
1
1
1
1
1
1
1
1
1
1
1
1
1
1
1
1
1
1.00004
1.00165
1.02277
1.10515
1.25454
1.35064
1.38779
1.38987
1.38661
1.38357
1.38454
1.38632
1.38795
1.38833
1.38802
1.38749
1.38744
1.38781
1.38826
1.38829
1.38823
1.38793
1.38767
1.38751
1.38723
1.38707
1.39331
1.46229
1.62494
1.7326
1.7523
1.76169
1.75713
1
1
1
1
1
1
1
1
1
1
1
1
1
1
1
1
1
1
1
1
1
1
1
1
1
1
1
1
1
1
1
1
1
1
1
1
1
1
1
1
1
1
1
1
1
1
1
1
1.00002
1.00075
1.01124
1.09079
1.23792
1.34394
1.38001
1.38779
1.3878
1.38826
1.38896
1.38916
1.38887
1.38817
1.38756
1.38755
1.38803
1.38844
1.38844
1.3883
1.38784
1.3873
1.38712
1.38724
1.39309
1.45816
1.62016
1.73169
1.76537
1.76457
1.76344
1.75895
1
1
1
1
1
1
1
1
1
1
1
1
1
1
1
1
1
1
1
1
1
1
1
1
1
1
1
1
1
1
1
1
1
1
1
1
1
1
1
1
1
1
1
1
1
1
1
1
1
1.00001
1.00034
1.00929
1.08093
1.21372
1.31965
1.37406
1.38356
1.38636
1.38892
1.38977
1.38933
1.38855
1.38798
1.38791
1.38831
1.38873
1.38884
1.38862
1.38793
1.38713
1.38701
1.39227
1.45279
1.61803
1.75109
1.76287
1.76825
1.76763
1.76488
1.75973
1
1
1
1
1
1
1
1
1
1
1
1
1
1
1
1
1
1
1
1
1
1
1
1
1
1
1
1
1
1
1
1
1
1
1
1
1
1
1
1
1
1
1
1
1
1
1
1
1
1
1
1.0003
1.00704
1.05569
1.19021
1.33067
1.3632
1.37659
1.38503
1.38835
1.38806
1.38759
1.38753
1.38771
1.3881
1.38856
1.38901
1.3889
1.3883
1.38738
1.39137
1.45159
1.61785
1.73332
1.78362
1.77879
1.77295
1.76809
1.76525
1.75991
1
1
1
1
1
1
1
1
1
1
1
1
1
1
1
1
1
1
1
1
1
1
1
1
1
1
1
1
1
1
1
1
1
1
1
1
1
1
1
1
1
1
1
1
1
1
1
1
1
1
1
1
1.00014
1.0044
1.04351
1.18487
1.31418
1.37606
1.39095
1.39033
1.38941
1.3886
1.38794
1.38787
1.38762
1.38806
1.3888
1.38876
1.38853
1.39247
1.44562
1.61415
1.76106
1.77309
1.7813
1.7811
1.77561
1.76986
1.76599
1.76102
1
1
1
1
1
1
1
1
1
1
1
1
1
1
1
1
1
1
1
1
1
1
1
1
1
1
1
1
1
1
1
1
1
1
1
1
1
1
1
1
1
1
1
1
1
1
1
1
1
1
1
1
1
1.0001
1.00301
1.04317
1.17565
1.29877
1.371
1.38624
1.39029
1.38964
1.38774
1.38724
1.38706
1.38785
1.38858
1.38892
1.39254
1.44774
1.61533
1.73806
1.79603
1.79106
1.78424
1.78035
1.7762
1.77104
1.76705
1.76135
1
1
1
1
1
1
1
1
1
1
1
1
1
1
1
1
1
1
1
1
1
1
1
1
1
1
1
1
1
1
1
1
1
1
1
1
1
1
1
1
1
1
1
1
1
1
1
1
1
1
1
1
1
1
1.00007
1.003
1.03725
1.16021
1.30868
1.37672
1.38359
1.3843
1.3844
1.38464
1.3862
1.38811
1.38908
1.39415
1.44834
1.61906
1.77049
1.78004
1.79096
1.79084
1.78551
1.7805
1.77625
1.77155
1.76731
1.76117
1
1
1
1
1
1
1
1
1
1
1
1
1
1
1
1
1
1
1
1
1
1
1
1
1
1
1
1
1
1
1
1
1
1
1
1
1
1
1
1
1
1
1
1
1
1
1
1
1
1
1
1
1
1
1
1.00007
1.00247
1.0355
1.15371
1.30882
1.3745
1.38522
1.38427
1.38474
1.38743
1.39119
1.3988
1.46261
1.63584
1.75375
1.80754
1.79986
1.79085
1.78815
1.78398
1.7796
1.77531
1.77073
1.76645
1.76012
1
1
1
1
1
1
1
1
1
1
1
1
1
1
1
1
1
1
1
1
1
1
1
1
1
1
1
1
1
1
1
1
1
1
1
1
1
1
1
1
1
1
1
1
1
1
1
1
1
1
1
1
1
1
1
1
1.00006
1.00231
1.03277
1.16425
1.32501
1.35992
1.36705
1.37321
1.38332
1.40024
1.47062
1.63609
1.78183
1.78511
1.79596
1.79573
1.78919
1.78441
1.78108
1.77704
1.77229
1.76782
1.76392
1.75778
1
1
1
1
1
1
1
1
1
1
1
1
1
1
1
1
1
1
1
1
1
1
1
1
1
1
1
1
1
1
1
1
1
1
1
1
1
1
1
1
1
1
1
1
1
1
1
1
1
1
1
1
1
1
1
1
1
1.00005
1.00249
1.03668
1.16958
1.31722
1.36093
1.37089
1.39378
1.47713
1.64493
1.75805
1.80381
1.7973
1.79111
1.78908
1.78531
1.7813
1.77762
1.77342
1.76845
1.76401
1.76049
1.75472
1
1
1
1
1
1
1
1
1
1
1
1
1
1
1
1
1
1
1
1
1
1
1
1
1
1
1
1
1
1
1
1
1
1
1
1
1
1
1
1
1
1
1
1
1
1
1
1
1
1
1
1
1
1
1
1
1
1
1.00008
1.00281
1.03947
1.17541
1.30471
1.40064
1.50006
1.63451
1.73086
1.77423
1.78632
1.78736
1.78363
1.78181
1.78158
1.77947
1.77558
1.7702
1.76463
1.76058
1.75751
1.7523
1
1
1
1
1
1
1
1
1
1
1
1
1
1
1
1
1
1
1
1
1
1
1
1
1
1
1
1
1
1
1
1
1
1
1
1
1
1
1
1
1
1
1
1
1
1
1
1
1
1
1
1
1
1
1
1
1
1
1
1.00008
1.00355
1.04521
1.2276
1.46214
1.67052
1.80021
1.82899
1.80297
1.77853
1.7773
1.77657
1.77846
1.78164
1.77976
1.7751
1.76885
1.7634
1.75965
1.75661
1.75187
)
;

boundaryField
{
    inlet
    {
        type            fixedValue;
        value           uniform 1;
    }
    outlet
    {
        type            zeroGradient;
    }
    bottom
    {
        type            symmetryPlane;
    }
    top
    {
        type            symmetryPlane;
    }
    obstacle
    {
        type            zeroGradient;
    }
    defaultFaces
    {
        type            empty;
    }
}


// ************************************************************************* //
