/*--------------------------------*- C++ -*----------------------------------*\
| =========                 |                                                 |
| \\      /  F ield         | OpenFOAM: The Open Source CFD Toolbox           |
|  \\    /   O peration     | Version:  2206                                  |
|   \\  /    A nd           | Website:  www.openfoam.com                      |
|    \\/     M anipulation  |                                                 |
\*---------------------------------------------------------------------------*/
FoamFile
{
    version     2.0;
    format      ascii;
    arch        "LSB;label=32;scalar=64";
    class       volScalarField;
    location    "0.18";
    object      T;
}
// * * * * * * * * * * * * * * * * * * * * * * * * * * * * * * * * * * * * * //

dimensions      [0 0 0 1 0 0 0];

internalField   nonuniform List<scalar> 
4800
(
1
1
1
1
1
1
1
1
1
1
1
1
1
1
1
1
1
1
1
1
1
1
1
1
1
1
1
1
1
1
1
1
1
1
1
1
1
1
1
1
1
1
1
1
1
1
1
1
1
1
1
1
1
1
1
1
1
1
1
1
1
1
1
1
1
1
1
1
1
1
1
1
1
1
1
1
1
1
1
1
1
1
1
1
1
1
1
1
1
1
1
1
1
1
1
1
1
1
1
1
1
1
1
1
1
1
1
1
1
1
1
1
1
1
1
1
1
1
1
1
1
1
1
1
1
1
1
1
1
1
1
1
1
1
1
1
1
1
1
1
1
1
1
1
1
1
1
1
1
1
1
1
1
1
1
1
1
1
1
1
1
1
1
1
1
1
1
1
1
1
1
1
1
1
1
1
1
1
1
1
1
1
1
1
1
1
1
1
1
1
1
1
1
1
1
1
1
1
1
1
1
1
1
1
1
1
1
1
1
1
1
1
1
1
1
1
1
1
1
1
1
1
1
1
1
1
1
1
1
1
1
1
1
1
1
1
1
1
1
1
1
1
1
1
1
1
1
1
1
1
1
1
1
1
1
1
1
1
1
1
1
1
1
1
1
1
1
1
1
1
1
1
1
1
1
1
1
1
1
1
1
1
1
1
1
1
1
1
1
1
1
1
1
1
1
1
1
1
1
1
1
1
1
1
1
1
1
1
1
1
1
1
1
1
1
1
1
1
1
1
1
1
1
1
1
1
1
1
1
1
1
1
1
1
1
1
1
1
1
1
1
1
1
1
1
1
1
1
1
1
1
1
1
1
1
1
1
1
1
1
1
1
1
1
1
1
1
1
1
1
1
1
1
1
1
1
1
1
1
1
1
1
1
1
1
1
1
1
1
1
1
1
1
1
1
1
1
1
1
1
1
1
1
1
1
1
1
1
1
1
1
1
1
1
1
1
1
1
1
1
1
1
1
1
1
1
1
1
1
1
1
1
1
1
1
1
1
1
1
1
1
1
1
1
1
1
1
1
1
1
1
1
1
1
1
1
1
1
1
1
1
1
1
1
1
1
1
1
1
1
1
1
1
1
1
1
1
1
1
1
1
1
1
1
1
1
1
1
1
1
1
1
1
1
1
1
1
1
1
1
1
1
1
1
1
1
1
1
1
1
1
1
1
1
1
1
1
1
1
1
1
1
1
1
1
1
1
1
1
1
1
1
1
1
1
1
1
1
1
1
1
1
1
1
1
1
1
1
1
1
1
1
1
1
1
1
1
1
1
1
1
1
1
1
1
1
1
1
1
1
1
1
1
1
1
1
1
1
1
1
1
1
1
1
1
1
1
1
1
1
1
1
1
1
1
1
1
1
1
1
1
1
1
1
1
1
1
1
1
1
1
1
1
1
1
1
1
1
1
1
1
1
1
1
1
1
1
1
1
1
1
1
1
1
1
1
1
1
1
1
1
1
1
1
1
1
1
1
1
1
1
1
1
1
1
1
1
1
1
1
1
1
1
1
1
1
1
1
1
1
1
1
1
1
1
1
1
1
1
1
1
1
1
1
1
1
1
1
1
1
1
1
1
1
1
1
1
1
1
1
1
1
1
1
1
1
1
1
1
1
1
1
1
1
1
1
1
1
1
1
1
1
1
1
1
1
1
1
1
1
1
1
1
1
1
1
1
1
1
1
1
1
1
1
1
1
1
1
1
1
1
1
1
1
1
1
1
1
1
1
1
1
1
1
1
1
1
1
1
1
1
1
1
1
1
1
1
1
1
1
1
1
1
1
1
1
1
1
1
1
1
1
1
1
1
1
1
1
1
1
1
1
1
1
1
1
1
1
1
1
1
1
1
1
1
1
1
1
1
1
1
1
1
1
1
1
1
1
1
1
1
1
1
1
1
1
1
1
1
1
1
1
1
1
1
1
1
1
1
1
1
1
1
1
1
1
1
1
1
1
1
1
1
1
1
1
1
1
1
1
1
1
1
1
1
1
1
1
1
1
1
1
1
1
1
1
1
1
1
1
1
1
1
1
1
1
1
1
1
1
1
1
1
1
1
1
1
1
1
1
1
1
1
1
1
1
1
1
1
1
1
1
1
1
1
1
1
1
1
1
1
1
1
1
1
1
1
1
1
1
1
1
1
1
1
1
1
1
1
1
1
1
1
1
1
1
1
1
1
1
1
1
1
1
1
1
1
1
1
1
1
1
1
1
1
1
1
1
1
1
1
1
1
1
1
1
1
1
1
1
1
1
1
1
1
1
1
1
1
1
1
1
1
1
1
1
1
1
1
1
1
1
1
1
1
1
1
1
1
1
1
1
1
1
1
1
1
1
1
1
1
1
1
1
1
1
1
1
1
1
1
1
1
1
1
1
1
1
1
1
1
1
1
1
1
1
1
1
1
1
1
1
1
1
1
1
1
1
1
1
1
1
1
1
1
1
1
1
1
1
1
1
1
1
1
1
1
1
1
1
1
1
1
1
1
1
1
1
1
1
1
1
1
1
1
1
1
1
1
1
1
1
1
1
1
1
1
1
1
1
1
1
1
1
1
1
1
1
1
1
1
1
1
1
1
1
1
1
1
1
1
1
1
1
1
1
1
1
1
1
1
1
1
1
1
1
1
1
1
1
1
1
1
1
1
1
1
1
1
1
1
1
1
1
1
1
1
1
1
1
1
1
1
1
1
1
1
1
1
1
1
1
1
1
1
1
1
1
1
1
1
1
1
1
1
1
1
1
1
1
1
1
1
1
1
1
1
1
1
1
1
1
1
1
1
1
1
1
1
1
1
1
1
1
1
1
1
1
1
1
1
1
1
1
1
1
1
1
1
1
1
1
1
1
1
1
1
1
1
1
1
1
1
1
1
1
1
1
1
1
1
1
1
1
1
1
1
1
1
1
1
1
1
1
1
1
1
1
1
1
1
1
1
1
1
1
1
1
1
1
1
1
1
1
1
1
1
1
1
1
1
1
1
1
1
1
1
1
1
1
1
1
1
1
1
1
1
1
1
1
1
1
1
1
1
1
1
1
1
1
1
1
1
1
1
1
1
1
1
1
1
1
1
1
1
1
1
1
1
1
1
1
1
1
1
1
1
1
1
1
1
1
1
1
1
1
1
1
1
1
1
1
1
1
1
1
1
1
1
1
1
1
1
1
1
1
1
1
1
1
1
1
1
1
1
1
1
1
1
1
1
1
1
1
1
1
1
1
1
1
1
1
1
1
1
1
1
1
1
1
1
1
1
1
1
1
1
1
1
1
1
1
1
1
1
1
1
1
1
1
1
1
1
1
1
1
1
1
1
1
1
1
1
1
1
1
1
1
1
1
1
1
1
1
1
1
1
1
1
1
1
1
1
1
1
1
1
1
1
1
1
1
1
1
1
1
1
1
1
1
1
1
1
1
1
1
1
1
1
1
1
1
1
1
1
1
1
1
1
1
1
1
1
1
1
1
1
1
1
1
1
1
1
1
1
1
1
1
1
1
1
1
1
1
1
1
1
1
1
1
1
1
1
1
1
1
1
1
1
1
1
1
1
1
1
1
1
1
1
1
1
1
1
1
1
1
1
1
1
1
1
1
1
1
1
1
1
1
1
1
1
1
1
1
1
1
1
1
1
1
1.07104
1.1649
1.25722
1.35887
1.45784
1.52944
1.59408
1.68046
1.76432
1.79383
1.81448
1.852
1.86491
1.85848
1.8369
1.80185
1.76077
1.72744
1.69786
1.66438
1.64319
1.64376
1.64551
1.64501
1.64663
1.65331
1.66399
1.67653
1.68101
1.6798
1.67685
1.67538
1.67708
1.6809
1.68391
1.68607
1.68754
1.6885
1.68941
1.68987
1.69018
1.69053
1.69063
1.69041
1.68998
1.6893
1.68808
1.68668
1.68621
1.68663
1.68903
1.69297
1.69567
1.69657
1.69656
1.69617
1.69513
1.69384
1.69245
1.69132
1.6905
1.68992
1.68971
1.68993
1.69065
1.69163
1.69334
1.69563
1.69808
1.70008
1.7009
1.70078
1.69941
1.69711
1.6959
1.69511
1.69452
1.69443
1.6945
1.69486
1
0.999801
1.00338
1.00637
1.03183
1.10046
1.16006
1.21398
1.29903
1.39786
1.44675
1.49221
1.55897
1.59204
1.62107
1.63763
1.66537
1.71147
1.71889
1.7153
1.70876
1.70833
1.70784
1.70116
1.69022
1.68438
1.68153
1.68108
1.67841
1.67723
1.67774
1.68003
1.68386
1.68734
1.68915
1.68925
1.68885
1.68858
1.68916
1.69048
1.69151
1.69283
1.69421
1.69492
1.69532
1.69546
1.69516
1.69372
1.69166
1.69114
1.69174
1.69279
1.69372
1.69451
1.69511
1.69557
1.696
1.69639
1.69697
1.69752
1.69761
1.69734
1.69684
1.69607
1.69526
1.69506
1.69502
1.6953
1.69605
1.69713
1.69821
1.69851
1.6982
1.69759
1.6974
1.69774
1.69815
1.69868
1.699
1.69899
1
1
1
1
1
1
1
0.999691
1.00085
1.0138
1.05041
1.09916
1.20765
1.34034
1.45499
1.59545
1.69546
1.76968
1.78748
1.78116
1.77686
1.7717
1.76565
1.75455
1.73746
1.71187
1.69648
1.69136
1.69244
1.69294
1.69413
1.69758
1.70139
1.70338
1.70417
1.70409
1.70292
1.70039
1.69919
1.69934
1.69922
1.69975
1.70306
1.70662
1.70795
1.70828
1.70789
1.70592
1.70384
1.70242
1.70142
1.70095
1.70069
1.69986
1.69874
1.69854
1.69931
1.7013
1.70399
1.7061
1.70689
1.70687
1.70637
1.70548
1.70424
1.7029
1.70179
1.70092
1.70055
1.70031
1.69984
1.69935
1.6993
1.69962
1.70037
1.70181
1.70359
1.70436
1.70449
1.70418
1
1
1
1
1
1
1
1
1
1
1
1
0.999646
1.00457
1.02656
1.13154
1.30306
1.46776
1.60691
1.66758
1.73422
1.75836
1.75381
1.7518
1.74918
1.74656
1.74202
1.73587
1.73327
1.72996
1.72757
1.72315
1.71907
1.71669
1.71533
1.71495
1.71552
1.71551
1.71577
1.71568
1.7149
1.7143
1.71525
1.7176
1.71923
1.72012
1.72066
1.72092
1.72037
1.71875
1.71735
1.71637
1.71505
1.71295
1.71046
1.70856
1.70833
1.70875
1.70998
1.71244
1.7153
1.71698
1.7173
1.71675
1.71522
1.71316
1.71092
1.70905
1.70773
1.70687
1.70614
1.7055
1.70508
1.70512
1.70532
1.70603
1.70743
1.70871
1.70932
1.70936
1
1
1
1
1
1
1
1
1
1
1
1
1
1
1
0.999815
1.00072
1.01359
1.10312
1.24963
1.39477
1.54957
1.64843
1.75803
1.77934
1.78057
1.78265
1.78032
1.77421
1.76483
1.74973
1.73318
1.72397
1.72529
1.72959
1.73124
1.7314
1.73067
1.72888
1.72911
1.7288
1.72752
1.7277
1.72872
1.72859
1.72791
1.72777
1.72847
1.7301
1.73129
1.73143
1.7308
1.72908
1.72686
1.72465
1.72224
1.72088
1.72093
1.72092
1.72088
1.72105
1.7218
1.72274
1.72326
1.72326
1.72223
1.72065
1.7194
1.71875
1.71814
1.7176
1.71679
1.71565
1.71531
1.71517
1.71506
1.71496
1.71482
1.71462
1.71407
1
1
1
1
1
1
1
1
1
1
1
1
1
1
1
1
1
1
0.999999
1.00004
1.00629
1.07342
1.20694
1.36274
1.51571
1.60924
1.70839
1.74179
1.74483
1.74717
1.74386
1.73789
1.73618
1.73879
1.74386
1.74426
1.74436
1.74201
1.73836
1.73518
1.73332
1.73212
1.73172
1.73252
1.73414
1.7336
1.73273
1.73256
1.73316
1.73471
1.73692
1.73871
1.73903
1.73857
1.73769
1.73664
1.73456
1.73233
1.73161
1.73068
1.72902
1.72771
1.72722
1.72715
1.72744
1.72821
1.72873
1.72918
1.72992
1.73004
1.72966
1.72886
1.72769
1.72678
1.72622
1.72547
1.72453
1.72349
1.72251
1.72095
1
1
1
1
1
1
1
1
1
1
1
1
1
1
1
1
1
1
1
1
1
1
0.99987
1.00391
1.05245
1.15737
1.30576
1.46841
1.58536
1.70091
1.73133
1.74058
1.75171
1.75146
1.74912
1.74509
1.7381
1.73279
1.7298
1.73104
1.73326
1.73679
1.73856
1.73813
1.73552
1.73323
1.73159
1.73161
1.73202
1.73266
1.73404
1.73678
1.74033
1.74213
1.74252
1.74253
1.74245
1.74214
1.7398
1.73681
1.7342
1.73199
1.73118
1.7311
1.73107
1.73114
1.73181
1.73294
1.73459
1.73596
1.7362
1.73603
1.73547
1.73458
1.73385
1.7328
1.73147
1.73008
1.72865
1.72655
1
1
1
1
1
1
1
1
1
1
1
1
1
1
1
1
1
1
1
1
1
1
1
1
1
0.999805
1.00242
1.04498
1.14268
1.28741
1.45569
1.56743
1.67521
1.70219
1.71029
1.71486
1.71074
1.71381
1.72324
1.73104
1.73518
1.73851
1.73984
1.73875
1.73718
1.73644
1.7339
1.72967
1.72887
1.72904
1.72996
1.7317
1.73364
1.73644
1.73902
1.7408
1.74222
1.74302
1.7433
1.74261
1.74094
1.73869
1.73648
1.73526
1.73455
1.73422
1.73439
1.7351
1.73581
1.73633
1.73664
1.73637
1.73583
1.73566
1.73559
1.73549
1.73505
1.73432
1.73343
1.73215
1
1
1
1
1
1
1
1
1
1
1
1
1
1
1
1
1
1
1
1
1
1
1
1
1
1
1
1
0.999903
1.00252
1.04406
1.13056
1.27438
1.43261
1.55532
1.65719
1.68611
1.70321
1.71537
1.72188
1.72718
1.7293
1.73103
1.73145
1.73132
1.73144
1.7317
1.73215
1.73179
1.73044
1.72835
1.7272
1.72726
1.72846
1.72981
1.73107
1.73276
1.73541
1.73829
1.73955
1.73987
1.74039
1.74074
1.74052
1.73918
1.73705
1.73557
1.7352
1.73529
1.73529
1.73504
1.73421
1.73363
1.73364
1.7343
1.73606
1.73729
1.73724
1.73704
1.73682
1
1
1
1
1
1
1
1
1
1
1
1
1
1
1
1
1
1
1
1
1
1
1
1
1
1
1
1
1
0.999995
1.00001
0.99997
1.00298
1.04432
1.12386
1.2669
1.43242
1.56562
1.65325
1.66589
1.6801
1.68891
1.69583
1.70315
1.71183
1.72136
1.72743
1.72851
1.72886
1.72852
1.72914
1.7297
1.72773
1.72376
1.722
1.72202
1.723
1.72485
1.72721
1.73032
1.73356
1.73599
1.7373
1.73764
1.73724
1.73676
1.73667
1.73624
1.73562
1.73491
1.73368
1.73256
1.73227
1.73264
1.73381
1.73515
1.73595
1.73674
1.73787
1.73824
1
1
1
1
1
1
1
1
1
1
1
1
1
1
1
1
1
1
1
1
1
1
1
1
1
1
1
1
1
1
1
1
0.999994
1.00004
1.00005
1.00411
1.04901
1.13937
1.2972
1.44561
1.57327
1.64925
1.66767
1.67914
1.68699
1.69563
1.7064
1.71715
1.72119
1.72221
1.72376
1.72505
1.72613
1.72644
1.7245
1.72005
1.71788
1.71788
1.71964
1.72203
1.72353
1.72504
1.7268
1.72873
1.73025
1.73141
1.7325
1.73392
1.73535
1.7356
1.73499
1.73329
1.73139
1.73112
1.73192
1.73346
1.73457
1.73506
1.73569
1.73664
1
1
1
1
1
1
1
1
1
1
1
1
1
1
1
1
1
1
1
1
1
1
1
1
1
1
1
1
1
1
1
1
1
1
1
1
0.99999
1.00027
1.00889
1.06288
1.16048
1.32535
1.48169
1.61926
1.6545
1.66033
1.67262
1.68147
1.69063
1.6975
1.70539
1.71481
1.72016
1.72011
1.71811
1.71835
1.7205
1.72207
1.7216
1.71918
1.71654
1.7162
1.71714
1.71777
1.71867
1.72032
1.72335
1.72784
1.73092
1.73163
1.73125
1.7304
1.73086
1.73167
1.73234
1.73273
1.73274
1.73258
1.73256
1.73321
1
1
1
1
1
1
1
1
1
1
1
1
1
1
1
1
1
1
1
1
1
1
1
1
1
1
1
1
1
1
1
1
1
1
1
1
1
0.999999
1.00001
1.00003
1.00071
1.0175
1.0844
1.23061
1.38753
1.52207
1.62666
1.6629
1.66778
1.67797
1.67777
1.68669
1.69967
1.70662
1.70856
1.71176
1.71605
1.72014
1.72171
1.72172
1.71961
1.71487
1.71229
1.71115
1.71094
1.71237
1.71475
1.71832
1.72152
1.72336
1.7244
1.72513
1.72618
1.72779
1.73002
1.7311
1.7312
1.73091
1.72992
1.72956
1
1
1
1
1
1
1
1
1
1
1
1
1
1
1
1
1
1
1
1
1
1
1
1
1
1
1
1
1
1
1
1
1
1
1
1
1
1
1
1
1
0.999992
1.00013
1.00341
1.04187
1.12415
1.28825
1.45368
1.60995
1.66752
1.66974
1.6753
1.67947
1.68021
1.68349
1.68922
1.69954
1.71086
1.71506
1.71489
1.71466
1.71389
1.71375
1.71432
1.71325
1.71123
1.71073
1.71187
1.7142
1.71515
1.715
1.71566
1.71716
1.72057
1.72486
1.72617
1.72615
1.72627
1.72694
1.72723
1
1
1
1
1
1
1
1
1
1
1
1
1
1
1
1
1
1
1
1
1
1
1
1
1
1
1
1
1
1
1
1
1
1
1
1
1
1
1
1
1
1
1
0.999996
1.00003
1.00058
1.01247
1.08086
1.237
1.40584
1.54381
1.6372
1.6725
1.67597
1.68173
1.68006
1.68263
1.69036
1.69752
1.69978
1.70228
1.70587
1.70884
1.71175
1.71169
1.7121
1.71335
1.71424
1.71432
1.71258
1.709
1.70843
1.70941
1.71289
1.7171
1.719
1.71968
1.72051
1.72116
1.7221
1
1
1
1
1
1
1
1
1
1
1
1
1
1
1
1
1
1
1
1
1
1
1
1
1
1
1
1
1
1
1
1
1
1
1
1
1
1
1
1
1
1
1
1
1
1
0.999991
1.00025
1.00512
1.05373
1.15892
1.33301
1.48714
1.63067
1.68764
1.68609
1.68994
1.69002
1.68868
1.68765
1.68594
1.68718
1.69293
1.7006
1.70576
1.70746
1.70982
1.71271
1.71456
1.71366
1.71007
1.70769
1.70752
1.70839
1.71072
1.71223
1.71256
1.71301
1.71364
1.71552
1
1
1
1
1
1
1
1
1
1
1
1
1
1
1
1
1
1
1
1
1
1
1
1
1
1
1
1
1
1
1
1
1
1
1
1
1
1
1
1
1
1
1
1
1
1
1
1
0.999992
1.00012
1.00168
1.02571
1.11973
1.30395
1.48893
1.61236
1.66812
1.69269
1.6983
1.69733
1.68873
1.6872
1.68911
1.69128
1.69458
1.69509
1.69648
1.70344
1.70882
1.70955
1.70664
1.70617
1.70703
1.70898
1.70969
1.70934
1.70812
1.70791
1.70835
1.71046
1
1
1
1
1
1
1
1
1
1
1
1
1
1
1
1
1
1
1
1
1
1
1
1
1
1
1
1
1
1
1
1
1
1
1
1
1
1
1
1
1
1
1
1
1
1
1
1
0.999999
1
0.999997
1.00002
1.00107
1.01787
1.1348
1.29466
1.44415
1.57351
1.67312
1.7006
1.69872
1.70283
1.70706
1.7021
1.69591
1.69273
1.69218
1.69541
1.6993
1.69965
1.69984
1.70033
1.70292
1.70615
1.7083
1.70824
1.70717
1.70722
1.70749
1.70842
1
1
1
1
1
1
1
1
1
1
1
1
1
1
1
1
1
1
1
1
1
1
1
1
1
1
1
1
1
1
1
1
1
1
1
1
1
1
1
1
1
1
1
1
1
1
1
1
1
1
1
1
0.999998
1.00001
1.00157
1.01384
1.10032
1.25071
1.4491
1.58866
1.65998
1.69364
1.70436
1.70484
1.70456
1.70297
1.70139
1.69971
1.69833
1.69459
1.69279
1.69276
1.69482
1.69943
1.70363
1.70477
1.70464
1.70442
1.70461
1.70616
1
1
1
1
1
1
1
1
1
1
1
1
1
1
1
1
1
1
1
1
1
1
1
1
1
1
1
1
1
1
1
1
1
1
1
1
1
1
1
1
1
1
1
1
1
1
1
1
1
1
1
1
1
1
1
0.999999
1.00099
1.00924
1.0959
1.31743
1.50256
1.58014
1.64601
1.69306
1.7052
1.70605
1.70887
1.71195
1.71109
1.70388
1.69705
1.69409
1.69516
1.69976
1.70176
1.70077
1.69964
1.69949
1.70085
1.70379
1
1
1
1
1
1
1
1
1
1
1
1
1
1
1
1
1
1
1
1
1
1
1
1
1
1
1
1
1
1
1
1
1
1
1
1
1
1
1
1
1
1
1
1
1
1
1
1
1
1
1
1
1
1
1
1
0.999999
0.999999
1.00156
1.02246
1.14103
1.32659
1.4918
1.62149
1.65664
1.67077
1.68713
1.70112
1.7047
1.70261
1.70055
1.70162
1.70529
1.70811
1.70683
1.70244
1.69712
1.69619
1.69734
1.70005
1
1
1
1
1
1
1
1
1
1
1
1
1
1
1
1
1
1
1
1
1
1
1
1
1
1
1
1
1
1
1
1
1
1
1
1
1
1
1
1
1
1
1
1
1
1
1
1
1
1
1
1
1
1
1
1
1
1
0.999998
1.00004
1.00295
1.02897
1.13427
1.35582
1.58999
1.64566
1.65595
1.67216
1.68885
1.68818
1.6872
1.69478
1.70905
1.71267
1.71041
1.70455
1.69955
1.69856
1.69921
1.70045
1
1
1
1
1
1
1
1
1
1
1
1
1
1
1
1
1
1
1
1
1
1
1
1
1
1
1
1
1
1
1
1
1
1
1
1
1
1
1
1
1
1
1
1
1
1
1
1
1
1
1
1
1
1
1
1
1
1
1
1
0.999998
1.00007
1.00333
1.03992
1.2206
1.45578
1.59479
1.67111
1.68961
1.68712
1.68036
1.6855
1.69664
1.70495
1.70388
1.69842
1.6973
1.69953
1.70309
1.70427
1
1
1
1
1
1
1
1
1
1
1
1
1
1
1
1
1
1
1
1
1
1
1
1
1
1
1
1
1
1
1
1
1
1
1
1
1
1
1
1
1
1
1
1
1
1
1
1
1
1
1
1
1
1
1
1
1
1
1
1
1
1
0.999998
1.00027
1.01101
1.11357
1.28673
1.48618
1.64889
1.69712
1.69588
1.70489
1.70326
1.69742
1.69456
1.68968
1.68728
1.69027
1.69819
1.70427
1
1
1
1
1
1
1
1
1
1
1
1
1
1
1
1
1
1
1
1
1
1
1
1
1
1
1
1
1
1
1
1
1
1
1
1
1
1
1
1
1
1
1
1
1
1
1
1
1
1
1
1
1
1
1
1
1
1
1
1
1
1
1
0.999999
1.00003
1.00186
1.02746
1.14292
1.37865
1.57854
1.66817
1.70829
1.70973
1.70812
1.70617
1.70061
1.69428
1.69416
1.69742
1.69962
1
1
1
1
1
1
1
1
1
1
1
1
1
1
1
1
1
1
1
1
1
1
1
1
1
1
1
1
1
1
1
1
1
1
1
1
1
1
1
1
1
1
1
1
1
1
1
1
1
1
1
1
1
1
1
1
1
1
1
1
1
1
1
1
1
0.999998
1.00016
1.00362
1.06211
1.29998
1.51409
1.61516
1.66952
1.69891
1.70886
1.71195
1.71013
1.70686
1.70592
1.70202
1
1
1
1
1
1
1
1
1
1
1
1
1
1
1
1
1
1
1
1
1
1
1
1
1
1
1
1
1
1
1
1
1
1
1
1
1
1
1
1
1
1
1
1
1
1
1
1
1
1
1
1
1
1
1
1
1
1
1
1
1
1
1
1
1
1
1
1
1.00117
1.02742
1.18868
1.4039
1.55399
1.63397
1.68591
1.70347
1.7053
1.7059
1.70586
1.70596
1
1
1
1
1
1
1
1
1
1
1
1
1
1
1
1
1
1
1
1
1
1
1
1
1
1
1
1
1
1
1
1
1
1
1
1
1
1
1
1
1
1
1
1
1
1
1
1
1
1
1
1
1
1
1
1
1
1
1
1
1
1
1
1
1
1
1
1
1
1.00022
1.00977
1.06844
1.27958
1.51487
1.65893
1.68364
1.68363
1.68537
1.69026
1.69921
1
1
1
1
1
1
1
1
1
1
1
1
1
1
1
1
1
1
1
1
1
1
1
1
1
1
1
1
1
1
1
1
1
1
1
1
1
1
1
1
1
1
1
1
1
1
1
1
1
1
1
1
1
1
1
1
1
1
1
1
1
1
1
1
1
1
1
1
1
1
1.00003
1.00122
1.03083
1.17782
1.45765
1.65304
1.69361
1.69267
1.68355
1.68528
1
1
1
1
1
1
1
1
1
1
1
1
1
1
1
1
1
1
1
1
1
1
1
1
1
1
1
1
1
1
1
1
1
1
1
1
1
1
1
1
1
1
1
1
1
1
1
1
1
1
1
1
1
1
1
1
1
1
1
1
1
1
1
1
1
1
1
1
1
1
1
1
1.00034
1.01274
1.12766
1.40092
1.60096
1.68233
1.69935
1.70234
1
1
1
1
1
1
1
1
1
1
1
1
1
1
1
1
1
1
1
1
1
1
1
1
1
1
1
1
1
1
1
1
1
1
1
1
1
1
1
1
1
1
1
1
1
1
1
1
1
1
1
1
1
1
1
1
1
1
1
1
1
1
1
1
1
1
1
1
1
1
1
1
1
1.00012
1.00514
1.09325
1.33373
1.53373
1.66202
1.70744
1
1
1
1
1
1
1
1
1
1
1
1
1
1
1
1
1
1
1
1
1
1
1
1
1
1
1
1
1
1
1
1
1
1
1
1
1
1
1
1
1
1
1
1
1
1
1
1
1
1
1
1
1
1
1
1
1
1
1
1
1
1
1
1
1
1
1
1
1
1
1
1
1
1
1.00003
1.00288
1.05261
1.26048
1.49471
1.66522
1
1
1
1
1
1
1
1
1
1
1
1
1
1
1
1
1
1
1
1
1
1
1
1
1
1
1
1
1
1
1
1
1
1
1
1
1
1
1
1
1
1
1
1
1
1
1
1
1
1
1
1
1
1
1
1
1
1
1
1
1
1
1
1
1
1
1
1
1
1
1
1
1
1
1
1.00001
1.00115
1.02926
1.17988
1.56764
1
1
1
1
1
1
1
1
1
1
1
1
1
1
1
1
1
1
1
1
1
1
1
1
1
1
1
1
1
1
1
1
1
1
1
1
1
1
1
1
1
1
1
1
1
1
1
1
1
1
1
1
1
1
1
1
1
1
1
1
1
1
1
1
1
1
1
1
1
1
1
1
1
1
1
1
1
1.00052
1.01206
1.36343
1
1
1
1
1
1
1
1
1
1
1
1
1
1
1
1
1
1
1
1
1
1
1
1
1
1
1
1
1
1
1
1
1
1
1
1
1
1
1
1
1
1
1
1
1
1
1
1
1
1
1
1
1
1
1
1
1
1
1
1
1
1
1
1
1
1
1
1
1
1
1
1
1
1
1
1
1
1
1.00033
1.10976
1
1
1
1
1
1
1
1
1
1
1
1
1
1
1
1
1
1
1
1
1
1
1
1
1
1
1
1
1
1
1
1
1
1
1
1
1
1
1
1
1
1
1
1
1
1
1
1
1
1
1
1
1
1
1
1
1
1
1
1
1
1
1
1
1
1
1
1
1
1
1
1
1
1
1
1
1
1
1.00001
1.01371
1
1
1
1
1
1
1
1
1
1
1
1
1
1
1
1
1
1
1
1
1
1
1
1
1
1
1
1
1
1
1
1
1
1
1
1
1
1
1
1
1
1
1
1
1
1
1
1
1
1
1
1
1
1
1
1
1
1
1
1
1
1
1
1
1
1
1
1
1
1
1
1
1
1
1
1
1
1
1
1.00094
1
1
1
1
1
1
1
1
1
1
1
1
1
1
1
1
1
1
1
1
1
1
1
1
1
1
1
1
1
1
1
1
1
1
1
1
1
1
1
1
1
1
1
1
1
1
1
1
1
1
1
1
1
1
1
1
1
1
1
1
1
1
1
1
1
1
1
1
1
1
1
1
1
1
1
1
1
1
1
1.00004
1
1
1
1
1
1
1
1
1
1
1
1
1
1
1
1
1
1
1
1
1
1
1
1
1
1
1
1
1
1
1
1
1
1
1
1
1
1
1
1
1
1
1
1
1
1
1
1
1
1
1
1
1
1
1
1
1
1
1
1
1
1
1
1
1
1
1
1
1
1
1
1
1
1
1
1
1
1
1
1
1
1
1
1
1
1
1
1
1
1
1
1
1
1
1
1
1
1
1
1
1
1
1
1
1
1
1
1
1
1
1
1
1
1
1
1
1
1
1
1
1
1
1
1
1
1
1
1
1
1
1
1
1
1
1
1
1
1
1
1
1
1
1
1
1
1
1
1
1
1
1
1
1
1
1
1
1
1
1
1
)
;

boundaryField
{
    inlet
    {
        type            fixedValue;
        value           uniform 1;
    }
    outlet
    {
        type            zeroGradient;
    }
    bottom
    {
        type            symmetryPlane;
    }
    top
    {
        type            symmetryPlane;
    }
    obstacle
    {
        type            zeroGradient;
    }
    defaultFaces
    {
        type            empty;
    }
}


// ************************************************************************* //
