/*--------------------------------*- C++ -*----------------------------------*\
| =========                 |                                                 |
| \\      /  F ield         | OpenFOAM: The Open Source CFD Toolbox           |
|  \\    /   O peration     | Version:  2206                                  |
|   \\  /    A nd           | Website:  www.openfoam.com                      |
|    \\/     M anipulation  |                                                 |
\*---------------------------------------------------------------------------*/
FoamFile
{
    version     2.0;
    format      ascii;
    arch        "LSB;label=32;scalar=64";
    class       volScalarField;
    location    "0.16";
    object      T;
}
// * * * * * * * * * * * * * * * * * * * * * * * * * * * * * * * * * * * * * //

dimensions      [0 0 0 1 0 0 0];

internalField   nonuniform List<scalar> 
4800
(
1
1
1
1
1
1
1
1
1
1
1
1
1
1
1
1
1
1
1
1
1
1
1
1
1
1
1
1
1
1
1
1
1
1
1
1
1
1
1
1
1
1
1
1
1
1
1
1
1
1
1
1
1
1
1
1
1
1
1
1
1
1
1
1
1
1
1
1
1
1
1
1
1
1
1
1
1
1
1
1
1
1
1
1
1
1
1
1
1
1
1
1
1
1
1
1
1
1
1
1
1
1
1
1
1
1
1
1
1
1
1
1
1
1
1
1
1
1
1
1
1
1
1
1
1
1
1
1
1
1
1
1
1
1
1
1
1
1
1
1
1
1
1
1
1
1
1
1
1
1
1
1
1
1
1
1
1
1
1
1
1
1
1
1
1
1
1
1
1
1
1
1
1
1
1
1
1
1
1
1
1
1
1
1
1
1
1
1
1
1
1
1
1
1
1
1
1
1
1
1
1
1
1
1
1
1
1
1
1
1
1
1
1
1
1
1
1
1
1
1
1
1
1
1
1
1
1
1
1
1
1
1
1
1
1
1
1
1
1
1
1
1
1
1
1
1
1
1
1
1
1
1
1
1
1
1
1
1
1
1
1
1
1
1
1
1
1
1
1
1
1
1
1
1
1
1
1
1
1
1
1
1
1
1
1
1
1
1
1
1
1
1
1
1
1
1
1
1
1
1
1
1
1
1
1
1
1
1
1
1
1
1
1
1
1
1
1
1
1
1
1
1
1
1
1
1
1
1
1
1
1
1
1
1
1
1
1
1
1
1
1
1
1
1
1
1
1
1
1
1
1
1
1
1
1
1
1
1
1
1
1
1
1
1
1
1
1
1
1
1
1
1
1
1
1
1
1
1
1
1
1
1
1
1
1
1
1
1
1
1
1
1
1
1
1
1
1
1
1
1
1
1
1
1
1
1
1
1
1
1
1
1
1
1
1
1
1
1
1
1
1
1
1
1
1
1
1
1
1
1
1
1
1
1
1
1
1
1
1
1
1
1
1
1
1
1
1
1
1
1
1
1
1
1
1
1
1
1
1
1
1
1
1
1
1
1
1
1
1
1
1
1
1
1
1
1
1
1
1
1
1
1
1
1
1
1
1
1
1
1
1
1
1
1
1
1
1
1
1
1
1
1
1
1
1
1
1
1
1
1
1
1
1
1
1
1
1
1
1
1
1
1
1
1
1
1
1
1
1
1
1
1
1
1
1
1
1
1
1
1
1
1
1
1
1
1
1
1
1
1
1
1
1
1
1
1
1
1
1
1
1
1
1
1
1
1
1
1
1
1
1
1
1
1
1
1
1
1
1
1
1
1
1
1
1
1
1
1
1
1
1
1
1
1
1
1
1
1
1
1
1
1
1
1
1
1
1
1
1
1
1
1
1
1
1
1
1
1
1
1
1
1
1
1
1
1
1
1
1
1
1
1
1
1
1
1
1
1
1
1
1
1
1
1
1
1
1
1
1
1
1
1
1
1
1
1
1
1
1
1
1
1
1
1
1
1
1
1
1
1
1
1
1
1
1
1
1
1
1
1
1
1
1
1
1
1
1
1
1
1
1
1
1
1
1
1
1
1
1
1
1
1
1
1
1
1
1
1
1
1
1
1
1
1
1
1
1
1
1
1
1
1
1
1
1
1
1
1
1
1
1
1
1
1
1
1
1
1
1
1
1
1
1
1
1
1
1
1
1
1
1
1
1
1
1
1
1
1
1
1
1
1
1
1
1
1
1
1
1
1
1
1
1
1
1
1
1
1
1
1
1
1
1
1
1
1
1
1
1
1
1
1
1
1
1
1
1
1
1
1
1
1
1
1
1
1
1
1
1
1
1
1
1
1
1
1
1
1
1
1
1
1
1
1
1
1
1
1
1
1
1
1
1
1
1
1
1
1
1
1
1
1
1
1
1
1
1
1
1
1
1
1
1
1
1
1
1
1
1
1
1
1
1
1
1
1
1
1
1
1
1
1
1
1
1
1
1
1
1
1
1
1
1
1
1
1
1
1
1
1
1
1
1
1
1
1
1
1
1
1
1
1
1
1
1
1
1
1
1
1
1
1
1
1
1
1
1
1
1
1
1
1
1
1
1
1
1
1
1
1
1
1
1
1
1
1
1
1
1
1
1
1
1
1
1
1
1
1
1
1
1
1
1
1
1
1
1
1
1
1
1
1
1
1
1
1
1
1
1
1
1
1
1
1
1
1
1
1
1
1
1
1
1
1
1
1
1
1
1
1
1
1
1
1
1
1
1
1
1
1
1
1
1
1
1
1
1
1
1
1
1
1
1
1
1
1
1
1
1
1
1
1
1
1
1
1
1
1
1
1
1
1
1
1
1
1
1
1
1
1
1
1
1
1
1
1
1
1
1
1
1
1
1
1
1
1
1
1
1
1
1
1
1
1
1
1
1
1
1
1
1
1
1
1
1
1
1
1
1
1
1
1
1
1
1
1
1
1
1
1
1
1
1
1
1
1
1
1
1
1
1
1
1
1
1
1
1
1
1
1
1
1
1
1
1
1
1
1
1
1
1
1
1
1
1
1
1
1
1
1
1
1
1
1
1
1
1
1
1
1
1
1
1
1
1
1
1
1
1
1
1
1
1
1
1
1
1
1
1
1
1
1
1
1
1
1
1
1
1
1
1
1
1
1
1
1
1
1
1
1
1
1
1
1
1
1
1
1
1
1
1
1
1
1
1
1
1
1
1
1
1
1
1
1
1
1
1
1
1
1
1
1
1
1
1
1
1
1
1
1
1
1
1
1
1
1
1
1
1
1
1
1
1
1
1
1
1
1
1
1
1
1
1
1
1
1
1
1
1
1
1
1
1
1
1
1
1
1
1
1
1
1
1
1
1
1
1
1
1
1
1
1
1
1
1
1
1
1
1
1
1
1
1
1
1
1
1
1
1
1
1
1
1
1
1
1
1
1
1
1
1
1
1
1
1
1
1
1
1
1
1
1
1
1
1
1
1
1
1
1
1
1
1
1
1
1
1
1
1
1
1
1
1
1
1
1
1
1
1
1
1
1
1
1
1
1
1
1
1
1
1
1
1
1
1
1
1
1
1
1
1
1
1
1
1
1
1
1
1
1
1
1
1
1
1
1
1
1
1
1
1
1
1
1
1
1
1
1
1
1
1
1
1
1
1
1
1
1
1
1
1
1
1
1
1
1
1
1
1
1
1
1
1
1
1
1
1
1
1
1
1
1
1
1
1
1
1
1
1
1
1
1
1
1
1
1
1
1
1
1
1
1
1
1
1
1
1
1
1
1
1
1
1
1
1
1
1
1
1
1
1
1
1
1
1
1
1
1
1
1
1
1
1
1
1
1
1
1
1
1
1
1
1
1
1
1
1
1
1
1
1
1
1
1
1
1
1
1
1
1
1
1
1
1
1
1
1
1
1
1
1
1
1
1
1
1
1
1
1
1
1
1
1
1
1
1
1
1
1
1
1
1
1
1
1
1
1
1
1
1
1
1
1
1
1
1
1
1
1
1
1
1
1
1
1
1
1
1
1
1
1
1
1
1
1
1
1
1
1
1
1
1
1
1
1
1
1
1
1
1
1
1
1
1
1
1
1
1
1
1
1
1
1
1
1
1
1
1
1
1
1.07003
1.16186
1.26113
1.35798
1.4395
1.52894
1.64766
1.74138
1.79331
1.8443
1.93475
2.02013
2.03278
2.0396
2.06054
2.06173
2.05318
2.02525
1.98603
1.94863
1.90872
1.8583
1.82175
1.81263
1.80964
1.79727
1.79369
1.79741
1.80962
1.82513
1.83105
1.83109
1.83446
1.8439
1.85334
1.85381
1.85282
1.85267
1.85313
1.8548
1.85633
1.85611
1.85446
1.85304
1.85418
1.85963
1.86594
1.86885
1.86894
1.86737
1.86289
1.85734
1.8546
1.85402
1.85459
1.85778
1.86428
1.86975
1.87263
1.87323
1.87248
1.86972
1.86576
1.86109
1.85773
1.85616
1.85618
1.85822
1.86296
1.87025
1.87622
1.87897
1.8796
1.8791
1.8768
1.87395
1.8701
1.86603
1.86209
1.86067
1
1
0.999618
1.00021
1.02364
1.03072
1.04778
1.13939
1.25464
1.31443
1.38102
1.49088
1.58667
1.61843
1.66525
1.72049
1.76161
1.77989
1.79958
1.84976
1.88212
1.87946
1.88577
1.89594
1.90112
1.89664
1.88252
1.86897
1.86362
1.85988
1.84874
1.83976
1.83983
1.84464
1.85138
1.85352
1.85378
1.85516
1.85819
1.86225
1.86451
1.8644
1.86406
1.86243
1.86117
1.86142
1.86257
1.86573
1.86928
1.87009
1.86893
1.86766
1.8678
1.86785
1.86711
1.86573
1.86521
1.86538
1.86719
1.86992
1.87192
1.87223
1.87147
1.87083
1.87019
1.86897
1.86807
1.86823
1.8697
1.87032
1.87033
1.87118
1.87197
1.87309
1.87495
1.87503
1.87429
1.874
1.87342
1.87252
1
1
1
0.999999
1
1
1
1
0.999999
1
0.999386
1.00588
1.04673
1.09887
1.17955
1.34403
1.48866
1.62934
1.75933
1.89489
1.95549
1.96991
1.98343
1.98674
1.98339
1.97597
1.95987
1.94059
1.91362
1.89263
1.87297
1.86372
1.8647
1.87011
1.87213
1.87222
1.87213
1.87323
1.87691
1.8821
1.88492
1.88487
1.88426
1.88336
1.88117
1.87805
1.87656
1.87631
1.87749
1.88167
1.88571
1.88719
1.88727
1.88668
1.88474
1.88164
1.87814
1.8756
1.87427
1.87387
1.87498
1.87995
1.88487
1.88632
1.88618
1.88508
1.88376
1.88271
1.88194
1.88044
1.87764
1.87407
1.87171
1.87125
1.87306
1.87964
1.88581
1.88742
1.88755
1.88643
1
1
1
1
1
1
1
1
1
1
1
1
1
1
1
0.999449
1.00341
1.05101
1.17532
1.3582
1.60507
1.74205
1.84785
1.9187
1.93163
1.94864
1.93898
1.92754
1.93689
1.94991
1.9471
1.93548
1.93161
1.92903
1.92292
1.91276
1.89673
1.88859
1.88858
1.89157
1.89851
1.90425
1.90578
1.90558
1.90497
1.90314
1.90058
1.89733
1.89609
1.89686
1.90013
1.90424
1.90802
1.90938
1.90819
1.90411
1.89862
1.89379
1.89023
1.88769
1.8873
1.88891
1.8935
1.89889
1.90218
1.90302
1.90209
1.89985
1.89674
1.89168
1.88588
1.8814
1.8797
1.88004
1.88152
1.88502
1.89186
1.89661
1.89887
1.89792
1
1
1
1
1
1
1
1
1
1
1
1
1
1
1
1
1
1
1
0.999382
1.01787
1.10766
1.22803
1.43967
1.63935
1.7821
1.86801
1.90902
1.97518
1.99669
1.99491
1.9919
1.98553
1.97729
1.96584
1.94243
1.92034
1.90963
1.90926
1.91249
1.91959
1.92344
1.92444
1.9236
1.92091
1.92011
1.91959
1.91701
1.91528
1.9155
1.91606
1.91714
1.92006
1.92368
1.92413
1.92196
1.91704
1.91339
1.91084
1.90772
1.90503
1.90477
1.906
1.9078
1.91014
1.91265
1.91431
1.91433
1.91165
1.90727
1.90431
1.90133
1.89767
1.8965
1.89724
1.8987
1.90006
1.9015
1.90361
1.90403
1
1
1
1
1
1
1
1
1
1
1
1
1
1
1
1
1
1
1
1
1
1
0.999635
1.00132
1.03747
1.10904
1.30437
1.50535
1.66427
1.78957
1.85289
1.92127
1.94796
1.94878
1.95007
1.94986
1.94168
1.93573
1.93398
1.9351
1.93706
1.93815
1.93601
1.93219
1.92744
1.92584
1.92537
1.9244
1.92446
1.92698
1.92696
1.92696
1.92671
1.92679
1.92858
1.93108
1.93259
1.93275
1.93235
1.9301
1.92539
1.92146
1.9211
1.92061
1.91902
1.91781
1.91788
1.91976
1.92293
1.92425
1.92374
1.92188
1.91951
1.91733
1.91666
1.91574
1.9144
1.91232
1.91055
1.90832
1
1
1
1
1
1
1
1
1
1
1
1
1
1
1
1
1
1
1
1
1
1
1
1
1
1
0.99945
1.0063
1.04303
1.20774
1.39999
1.55228
1.7033
1.79619
1.90318
1.94029
1.94602
1.95525
1.95486
1.95024
1.94312
1.93228
1.92099
1.91687
1.91942
1.9243
1.92834
1.93213
1.93285
1.93072
1.92647
1.92423
1.92337
1.92277
1.92329
1.92789
1.93676
1.94165
1.94216
1.94176
1.94044
1.93683
1.93011
1.92525
1.92182
1.92007
1.91978
1.92092
1.9259
1.9319
1.93365
1.93364
1.93302
1.93234
1.93182
1.93008
1.92437
1.91903
1.9153
1.91396
1
1
1
1
1
1
1
1
1
1
1
1
1
1
1
1
1
1
1
1
1
1
1
1
1
1
1
1
1
0.999843
1.00108
1.01533
1.12604
1.28895
1.45173
1.62437
1.74134
1.86463
1.90731
1.91118
1.91137
1.907
1.90493
1.90694
1.91677
1.92773
1.93522
1.93725
1.93566
1.93319
1.93022
1.92308
1.9166
1.9157
1.91652
1.92047
1.92742
1.93651
1.94144
1.942
1.94154
1.94145
1.94074
1.93626
1.93016
1.92452
1.92322
1.92471
1.92727
1.92936
1.93193
1.93404
1.93618
1.93793
1.93818
1.93644
1.93345
1.9299
1.92499
1.92224
1
1
1
1
1
1
1
1
1
1
1
1
1
1
1
1
1
1
1
1
1
1
1
1
1
1
1
1
1
1
1
1
1
0.999484
1.00446
1.08066
1.22348
1.40225
1.58084
1.71173
1.83478
1.8705
1.88601
1.8982
1.90812
1.9186
1.92677
1.92798
1.92671
1.92442
1.92197
1.92065
1.91778
1.91365
1.91123
1.91138
1.91566
1.92138
1.92578
1.92919
1.93232
1.93575
1.93696
1.93735
1.93725
1.93501
1.93081
1.92925
1.92916
1.9288
1.9284
1.92846
1.92914
1.93068
1.93348
1.9357
1.93581
1.93474
1.93403
1.93203
1
1
1
1
1
1
1
1
1
1
1
1
1
1
1
1
1
1
1
1
1
1
1
1
1
1
1
1
1
1
1
1
1
1
1
1
0.999585
1.00293
1.06234
1.1686
1.32709
1.51538
1.67851
1.80753
1.83052
1.8506
1.86763
1.87903
1.88692
1.89701
1.90904
1.9183
1.91907
1.91736
1.91446
1.91281
1.90999
1.90707
1.90803
1.9103
1.91216
1.91572
1.92399
1.93159
1.93289
1.93294
1.93469
1.9365
1.93614
1.93241
1.92463
1.92067
1.92074
1.92258
1.92559
1.92845
1.93052
1.93258
1.93536
1.9368
1
1
1
1
1
1
1
1
1
1
1
1
1
1
1
1
1
1
1
1
1
1
1
1
1
1
1
1
1
1
1
1
1
1
1
1
1
1
1
0.999725
1.00073
1.03765
1.12985
1.31857
1.52315
1.66369
1.76406
1.80725
1.83837
1.85653
1.87756
1.90086
1.91059
1.91013
1.9098
1.91114
1.9123
1.90976
1.90344
1.89763
1.89637
1.89863
1.90353
1.90988
1.91673
1.92235
1.92777
1.93242
1.93371
1.93298
1.92843
1.91915
1.91505
1.91549
1.91846
1.92164
1.9235
1.92548
1.93006
1.93427
1
1
1
1
1
1
1
1
1
1
1
1
1
1
1
1
1
1
1
1
1
1
1
1
1
1
1
1
1
1
1
1
1
1
1
1
1
1
1
1
1
1
0.999734
1.00188
1.04601
1.11967
1.28017
1.49699
1.69165
1.76038
1.78364
1.82121
1.86111
1.88311
1.89519
1.90143
1.90575
1.90587
1.90356
1.89985
1.89458
1.89178
1.89182
1.89506
1.89799
1.90058
1.90649
1.91633
1.92255
1.92298
1.91969
1.91804
1.91874
1.91879
1.91807
1.91634
1.91607
1.91832
1.9218
1.92525
1
1
1
1
1
1
1
1
1
1
1
1
1
1
1
1
1
1
1
1
1
1
1
1
1
1
1
1
1
1
1
1
1
1
1
1
1
1
1
1
1
1
1
1
1
0.99977
1.00174
1.03473
1.14093
1.34652
1.52127
1.65419
1.75142
1.8055
1.82944
1.84911
1.87999
1.89433
1.89506
1.89516
1.89598
1.90092
1.90185
1.89785
1.88872
1.88507
1.88692
1.89198
1.8964
1.90132
1.9053
1.90917
1.91216
1.91722
1.91967
1.91976
1.91723
1.91427
1.91358
1.9155
1
1
1
1
1
1
1
1
1
1
1
1
1
1
1
1
1
1
1
1
1
1
1
1
1
1
1
1
1
1
1
1
1
1
1
1
1
1
1
1
1
1
1
1
1
1
1
1
0.999769
1.00762
1.04608
1.1447
1.3751
1.62065
1.73318
1.75729
1.7944
1.8426
1.86581
1.87673
1.88805
1.89703
1.90117
1.89839
1.89284
1.88585
1.88007
1.88034
1.88512
1.88702
1.88808
1.89067
1.90091
1.91054
1.91365
1.9134
1.91165
1.91114
1.91117
1.91034
1
1
1
1
1
1
1
1
1
1
1
1
1
1
1
1
1
1
1
1
1
1
1
1
1
1
1
1
1
1
1
1
1
1
1
1
1
1
1
1
1
1
1
1
1
1
1
1
0.999999
1
0.999956
0.999968
1.01502
1.08784
1.27918
1.46742
1.59853
1.72914
1.79811
1.82108
1.83982
1.87171
1.88877
1.88896
1.88707
1.88746
1.89082
1.89506
1.89368
1.88539
1.87771
1.87772
1.88351
1.89075
1.89617
1.89896
1.90061
1.90275
1.90495
1.90661
1
1
1
1
1
1
1
1
1
1
1
1
1
1
1
1
1
1
1
1
1
1
1
1
1
1
1
1
1
1
1
1
1
1
1
1
1
1
1
1
1
1
1
1
1
1
1
1
1
1
1
0.999999
1.00001
0.999899
1.00349
1.03314
1.10605
1.32875
1.62773
1.77595
1.78966
1.80999
1.84215
1.85761
1.86011
1.87449
1.89131
1.89803
1.89688
1.89014
1.88269
1.87812
1.87798
1.88281
1.88539
1.88549
1.88623
1.8889
1.89508
1.89892
1
1
1
1
1
1
1
1
1
1
1
1
1
1
1
1
1
1
1
1
1
1
1
1
1
1
1
1
1
1
1
1
1
1
1
1
1
1
1
1
1
1
1
1
1
1
1
1
1
1
1
1
1
0.999998
0.999999
0.999971
1.00007
1.0123
1.10863
1.36585
1.56214
1.66958
1.77167
1.81654
1.82072
1.83737
1.86139
1.88148
1.8863
1.88281
1.88173
1.88452
1.89128
1.89405
1.89066
1.88112
1.87708
1.87826
1.88135
1.88636
1
1
1
1
1
1
1
1
1
1
1
1
1
1
1
1
1
1
1
1
1
1
1
1
1
1
1
1
1
1
1
1
1
1
1
1
1
1
1
1
1
1
1
1
1
1
1
1
1
1
1
1
1
1
1
0.999999
0.999999
0.999976
1.00011
1.0144
1.08623
1.19377
1.41267
1.70032
1.83385
1.82843
1.838
1.8546
1.86131
1.85572
1.85734
1.87507
1.89453
1.89794
1.89379
1.88538
1.87939
1.87733
1.87729
1.88035
1
1
1
1
1
1
1
1
1
1
1
1
1
1
1
1
1
1
1
1
1
1
1
1
1
1
1
1
1
1
1
1
1
1
1
1
1
1
1
1
1
1
1
1
1
1
1
1
1
1
1
1
1
1
1
1
1
0.999999
0.999998
1.00002
1.00004
1.00172
1.02777
1.20798
1.52973
1.70716
1.78297
1.84023
1.85129
1.84594
1.84081
1.85433
1.87598
1.88519
1.88305
1.87688
1.87759
1.8829
1.88842
1.88701
1
1
1
1
1
1
1
1
1
1
1
1
1
1
1
1
1
1
1
1
1
1
1
1
1
1
1
1
1
1
1
1
1
1
1
1
1
1
1
1
1
1
1
1
1
1
1
1
1
1
1
1
1
1
1
1
1
1
1
1
1
0.999999
0.999978
1.00272
1.0794
1.25938
1.42453
1.63458
1.82218
1.86808
1.86326
1.87391
1.86909
1.86731
1.86245
1.85278
1.85754
1.87687
1.89075
1.88881
1
1
1
1
1
1
1
1
1
1
1
1
1
1
1
1
1
1
1
1
1
1
1
1
1
1
1
1
1
1
1
1
1
1
1
1
1
1
1
1
1
1
1
1
1
1
1
1
1
1
1
1
1
1
1
1
1
1
1
1
1
1
0.999999
0.999992
1.00024
1.0039
1.03896
1.15656
1.4714
1.72815
1.83364
1.8737
1.8735
1.87207
1.8683
1.85982
1.86096
1.87224
1.88008
1.88176
1
1
1
1
1
1
1
1
1
1
1
1
1
1
1
1
1
1
1
1
1
1
1
1
1
1
1
1
1
1
1
1
1
1
1
1
1
1
1
1
1
1
1
1
1
1
1
1
1
1
1
1
1
1
1
1
1
1
1
1
1
1
1
0.999999
1
0.999999
1.00002
1.00143
1.0582
1.34163
1.5688
1.69796
1.8227
1.86823
1.88166
1.8808
1.8875
1.89101
1.88344
1.87298
1
1
1
1
1
1
1
1
1
1
1
1
1
1
1
1
1
1
1
1
1
1
1
1
1
1
1
1
1
1
1
1
1
1
1
1
1
1
1
1
1
1
1
1
1
1
1
1
1
1
1
1
1
1
1
1
1
1
1
1
1
1
1
1
1
1
1
0.999996
1.00033
1.01389
1.12288
1.31644
1.54819
1.7454
1.81602
1.8721
1.89537
1.89433
1.89096
1.88052
1
1
1
1
1
1
1
1
1
1
1
1
1
1
1
1
1
1
1
1
1
1
1
1
1
1
1
1
1
1
1
1
1
1
1
1
1
1
1
1
1
1
1
1
1
1
1
1
1
1
1
1
1
1
1
1
1
1
1
1
1
1
1
1
1
1
1
0.999999
1
0.99999
1.00111
1.0129
1.10068
1.40236
1.6947
1.78888
1.85025
1.88069
1.87817
1.87693
1
1
1
1
1
1
1
1
1
1
1
1
1
1
1
1
1
1
1
1
1
1
1
1
1
1
1
1
1
1
1
1
1
1
1
1
1
1
1
1
1
1
1
1
1
1
1
1
1
1
1
1
1
1
1
1
1
1
1
1
1
1
1
1
1
1
1
1
1
0.999999
1
0.999992
1.00124
1.03331
1.30147
1.57576
1.75027
1.83839
1.83463
1.84323
1
1
1
1
1
1
1
1
1
1
1
1
1
1
1
1
1
1
1
1
1
1
1
1
1
1
1
1
1
1
1
1
1
1
1
1
1
1
1
1
1
1
1
1
1
1
1
1
1
1
1
1
1
1
1
1
1
1
1
1
1
1
1
1
1
1
1
1
1
1
1
0.999999
0.999997
1.00019
1.0177
1.1483
1.35244
1.63584
1.81096
1.86714
1
1
1
1
1
1
1
1
1
1
1
1
1
1
1
1
1
1
1
1
1
1
1
1
1
1
1
1
1
1
1
1
1
1
1
1
1
1
1
1
1
1
1
1
1
1
1
1
1
1
1
1
1
1
1
1
1
1
1
1
1
1
1
1
1
1
1
1
1
1
1
1
1
0.999999
1.00003
1.00223
1.02984
1.17659
1.54428
1.82728
1
1
1
1
1
1
1
1
1
1
1
1
1
1
1
1
1
1
1
1
1
1
1
1
1
1
1
1
1
1
1
1
1
1
1
1
1
1
1
1
1
1
1
1
1
1
1
1
1
1
1
1
1
1
1
1
1
1
1
1
1
1
1
1
1
1
1
1
1
1
1
1
1
1
1
0.999997
1.00008
1.0061
1.11201
1.6458
1
1
1
1
1
1
1
1
1
1
1
1
1
1
1
1
1
1
1
1
1
1
1
1
1
1
1
1
1
1
1
1
1
1
1
1
1
1
1
1
1
1
1
1
1
1
1
1
1
1
1
1
1
1
1
1
1
1
1
1
1
1
1
1
1
1
1
1
1
1
1
1
1
1
1
1
1
1.00002
1.00249
1.27119
1
1
1
1
1
1
1
1
1
1
1
1
1
1
1
1
1
1
1
1
1
1
1
1
1
1
1
1
1
1
1
1
1
1
1
1
1
1
1
1
1
1
1
1
1
1
1
1
1
1
1
1
1
1
1
1
1
1
1
1
1
1
1
1
1
1
1
1
1
1
1
1
1
1
1
1
1
1
1.00002
1.0268
1
1
1
1
1
1
1
1
1
1
1
1
1
1
1
1
1
1
1
1
1
1
1
1
1
1
1
1
1
1
1
1
1
1
1
1
1
1
1
1
1
1
1
1
1
1
1
1
1
1
1
1
1
1
1
1
1
1
1
1
1
1
1
1
1
1
1
1
1
1
1
1
1
1
1
1
1
1
1
1.00062
1
1
1
1
1
1
1
1
1
1
1
1
1
1
1
1
1
1
1
1
1
1
1
1
1
1
1
1
1
1
1
1
1
1
1
1
1
1
1
1
1
1
1
1
1
1
1
1
1
1
1
1
1
1
1
1
1
1
1
1
1
1
1
1
1
1
1
1
1
1
1
1
1
1
1
1
1
1
1
1.00001
1
1
1
1
1
1
1
1
1
1
1
1
1
1
1
1
1
1
1
1
1
1
1
1
1
1
1
1
1
1
1
1
1
1
1
1
1
1
1
1
1
1
1
1
1
1
1
1
1
1
1
1
1
1
1
1
1
1
1
1
1
1
1
1
1
1
1
1
1
1
1
1
1
1
1
1
1
1
1
1
1
1
1
1
1
1
1
1
1
1
1
1
1
1
1
1
1
1
1
1
1
1
1
1
1
1
1
1
1
1
1
1
1
1
1
1
1
1
1
1
1
1
1
1
1
1
1
1
1
1
1
1
1
1
1
1
1
1
1
1
1
1
1
1
1
1
1
1
1
1
1
1
1
1
1
1
1
1
1
1
1
1
1
1
1
1
1
1
1
1
1
1
1
1
1
1
1
1
1
1
1
1
1
1
1
1
1
1
1
1
1
1
1
1
1
1
1
1
1
1
1
1
1
1
1
1
1
1
1
1
1
1
1
1
1
1
1
1
1
1
1
1
1
1
1
1
1
1
1
1
1
1
1
1
1
1
1
1
1
1
1
1
1
1
1
1
1
1
1
1
1
1
1
1
1
1
1
1
1
1
1
1
1
1
1
1
1
1
1
1
1
1
1
1
1
1
1
1
1
1
1
1
1
1
1
1
1
1
1
1
1
1
1
1
1
1
1
1
1
1
1
1
1
1
1
1
1
1
1
1
1
1
1
1
1
1
1
1
1
1
1
1
1
1
1
1
1
1
1
1
1
1
1
1
1
1
1
1
1
1
1
1
1
1
1
1
1
1
1
1
1
1
1
1
1
1
1
1
1
1
1
1
1
1
1
1
1
1
1
1
1
1
1
1
1
1
1
1
1
1
1
1
1
1
1
1
1
1
1
1
1
1
1
1
1
1
1
1
1
1
1
1
1
1
1
1
1
1
1
1
1
1
1
1
1
1
1
1
1
1
1
1
1
1
1
1
1
1
1
1
1
1
1
1
1
1
1
1
1
1
1
1
1
1
1
1
1
1
1
1
1
1
1
1
1
1
1
1
1
1
1
1
1
1
1
1
1
1
1
1
1
1
1
1
1
1
1
1
1
1
1
1
1
1
1
1
1
1
1
1
1
1
1
1
1
1
1
1
1
1
1
1
1
1
1
1
1
1
1
1
1
1
1
1
1
1
1
1
1
1
1
1
1
1
1
1
1
1
1
1
1
1
1
1
1
1
1
1
1
1
1
1
1
1
1
1
1
1
1
1
1
1
1
1
1
1
1
1
1
1
1
1
1
1
1
1
1
1
1
1
1
1
1
1
1
1
1
1
1
1
1
1
1
1
1
1
1
1
1
1
1
1
1
1
1
1
1
1
1
1
1
1
1
1
1
1
1
1
1
1
1
1
1
1
1
1
1
1
1
1
1
1
1
1
1
1
1
1
1
1
1
1
1
1
1
1
1
1
1
1
)
;

boundaryField
{
    inlet
    {
        type            fixedValue;
        value           uniform 1;
    }
    outlet
    {
        type            zeroGradient;
    }
    bottom
    {
        type            symmetryPlane;
    }
    top
    {
        type            symmetryPlane;
    }
    obstacle
    {
        type            zeroGradient;
    }
    defaultFaces
    {
        type            empty;
    }
}


// ************************************************************************* //
