/*--------------------------------*- C++ -*----------------------------------*\
| =========                 |                                                 |
| \\      /  F ield         | OpenFOAM: The Open Source CFD Toolbox           |
|  \\    /   O peration     | Version:  2206                                  |
|   \\  /    A nd           | Website:  www.openfoam.com                      |
|    \\/     M anipulation  |                                                 |
\*---------------------------------------------------------------------------*/
FoamFile
{
    version     2.0;
    format      ascii;
    arch        "LSB;label=32;scalar=64";
    class       volScalarField;
    location    "0.14";
    object      T;
}
// * * * * * * * * * * * * * * * * * * * * * * * * * * * * * * * * * * * * * //

dimensions      [0 0 0 1 0 0 0];

internalField   nonuniform List<scalar> 
4800
(
1
1
1
1
1
1
1
1
1
1
1
1
1
1
1
1
1
1
1
1
1
1
1
1
1
1
1
1
1
1
1
1
1
1
1
1
1
1
1
1
1
1
1
1
1
1
1
1
1
1
1
1
1
1
1
1
1
1
1
1
1
1
1
1
1
1
1
1
1
1
1
1
1
1
1
1
1
1
1
1
1
1
1
1
1
1
1
1
1
1
1
1
1
1
1
1
1
1
1
1
1
1
1
1
1
1
1
1
1
1
1
1
1
1
1
1
1
1
1
1
1
1
1
1
1
1
1
1
1
1
1
1
1
1
1
1
1
1
1
1
1
1
1
1
1
1
1
1
1
1
1
1
1
1
1
1
1
1
1
1
1
1
1
1
1
1
1
1
1
1
1
1
1
1
1
1
1
1
1
1
1
1
1
1
1
1
1
1
1
1
1
1
1
1
1
1
1
1
1
1
1
1
1
1
1
1
1
1
1
1
1
1
1
1
1
1
1
1
1
1
1
1
1
1
1
1
1
1
1
1
1
1
1
1
1
1
1
1
1
1
1
1
1
1
1
1
1
1
1
1
1
1
1
1
1
1
1
1
1
1
1
1
1
1
1
1
1
1
1
1
1
1
1
1
1
1
1
1
1
1
1
1
1
1
1
1
1
1
1
1
1
1
1
1
1
1
1
1
1
1
1
1
1
1
1
1
1
1
1
1
1
1
1
1
1
1
1
1
1
1
1
1
1
1
1
1
1
1
1
1
1
1
1
1
1
1
1
1
1
1
1
1
1
1
1
1
1
1
1
1
1
1
1
1
1
1
1
1
1
1
1
1
1
1
1
1
1
1
1
1
1
1
1
1
1
1
1
1
1
1
1
1
1
1
1
1
1
1
1
1
1
1
1
1
1
1
1
1
1
1
1
1
1
1
1
1
1
1
1
1
1
1
1
1
1
1
1
1
1
1
1
1
1
1
1
1
1
1
1
1
1
1
1
1
1
1
1
1
1
1
1
1
1
1
1
1
1
1
1
1
1
1
1
1
1
1
1
1
1
1
1
1
1
1
1
1
1
1
1
1
1
1
1
1
1
1
1
1
1
1
1
1
1
1
1
1
1
1
1
1
1
1
1
1
1
1
1
1
1
1
1
1
1
1
1
1
1
1
1
1
1
1
1
1
1
1
1
1
1
1
1
1
1
1
1
1
1
1
1
1
1
1
1
1
1
1
1
1
1
1
1
1
1
1
1
1
1
1
1
1
1
1
1
1
1
1
1
1
1
1
1
1
1
1
1
1
1
1
1
1
1
1
1
1
1
1
1
1
1
1
1
1
1
1
1
1
1
1
1
1
1
1
1
1
1
1
1
1
1
1
1
1
1
1
1
1
1
1
1
1
1
1
1
1
1
1
1
1
1
1
1
1
1
1
1
1
1
1
1
1
1
1
1
1
1
1
1
1
1
1
1
1
1
1
1
1
1
1
1
1
1
1
1
1
1
1
1
1
1
1
1
1
1
1
1
1
1
1
1
1
1
1
1
1
1
1
1
1
1
1
1
1
1
1
1
1
1
1
1
1
1
1
1
1
1
1
1
1
1
1
1
1
1
1
1
1
1
1
1
1
1
1
1
1
1
1
1
1
1
1
1
1
1
1
1
1
1
1
1
1
1
1
1
1
1
1
1
1
1
1
1
1
1
1
1
1
1
1
1
1
1
1
1
1
1
1
1
1
1
1
1
1
1
1
1
1
1
1
1
1
1
1
1
1
1
1
1
1
1
1
1
1
1
1
1
1
1
1
1
1
1
1
1
1
1
1
1
1
1
1
1
1
1
1
1
1
1
1
1
1
1
1
1
1
1
1
1
1
1
1
1
1
1
1
1
1
1
1
1
1
1
1
1
1
1
1
1
1
1
1
1
1
1
1
1
1
1
1
1
1
1
1
1
1
1
1
1
1
1
1
1
1
1
1
1
1
1
1
1
1
1
1
1
1
1
1
1
1
1
1
1
1
1
1
1
1
1
1
1
1
1
1
1
1
1
1
1
1
1
1
1
1
1
1
1
1
1
1
1
1
1
1
1
1
1
1
1
1
1
1
1
1
1
1
1
1
1
1
1
1
1
1
1
1
1
1
1
1
1
1
1
1
1
1
1
1
1
1
1
1
1
1
1
1
1
1
1
1
1
1
1
1
1
1
1
1
1
1
1
1
1
1
1
1
1
1
1
1
1
1
1
1
1
1
1
1
1
1
1
1
1
1
1
1
1
1
1
1
1
1
1
1
1
1
1
1
1
1
1
1
1
1
1
1
1
1
1
1
1
1
1
1
1
1
1
1
1
1
1
1
1
1
1
1
1
1
1
1
1
1
1
1
1
1
1
1
1
1
1
1
1
1
1
1
1
1
1
1
1
1
1
1
1
1
1
1
1
1
1
1
1
1
1
1
1
1
1
1
1
1
1
1
1
1
1
1
1
1
1
1
1
1
1
1
1
1
1
1
1
1
1
1
1
1
1
1
1
1
1
1
1
1
1
1
1
1
1
1
1
1
1
1
1
1
1
1
1
1
1
1
1
1
1
1
1
1
1
1
1
1
1
1
1
1
1
1
1
1
1
1
1
1
1
1
1
1
1
1
1
1
1
1
1
1
1
1
1
1
1
1
1
1
1
1
1
1
1
1
1
1
1
1
1
1
1
1
1
1
1
1
1
1
1
1
1
1
1
1
1
1
1
1
1
1
1
1
1
1
1
1
1
1
1
1
1
1
1
1
1
1
1
1
1
1
1
1
1
1
1
1
1
1
1
1
1
1
1
1
1
1
1
1
1
1
1
1
1
1
1
1
1
1
1
1
1
1
1
1
1
1
1
1
1
1
1
1
1
1
1
1
1
1
1
1
1
1
1
1
1
1
1
1
1
1
1
1
1
1
1
1
1
1
1
1
1
1
1
1
1
1
1
1
1
1
1
1
1
1
1
1
1
1
1
1
1
1
1
1
1
1
1
1
1
1
1
1
1
1
1
1
1
1
1
1
1
1
1
1
1
1
1
1
1
1
1
1
1
1
1
1
1
1
1
1
1
1
1
1
1
1
1
1
1
1
1
1
1
1
1
1
1
1
1
1
1
1
1
1
1
1
1
1
1
1
1
1
1
1
1
1
1
1
1
1
1
1
1
1
1
1
1
1
1
1
1
1
1
1
1
1
1
1
1
1
1
1
1
1
1
1
1
1
1
1
1
1
1
1
1
1
1
1
1
1
1
1
1
1
1
1
1
1
1
1
1
1
1
1
1
1
1
1
1
1
1
1
1
1
1
1
1
1
1
1
1
1
1
1
1
1
1
1
1
1
1
1
1
1
1
1
1
1
1
1
1
1
1
1
1
1
1
1
1
1
1
1
1
1
1
1
1
1
1
1
1
1
1
1
1
1
1
1
1
1
1
1
1
1
1
1
1
1
1
1
1
1
1
1
1
1
1
1
1
1
1
1
1
1
1
1
1
1
1
1
1
1
1
1
1
1
1
1
1
1
1
1
1
1
1
1
1
1
1
1
1
1
1
1
1
1
1
1
1
1
1
1
1
1
1
1
1
1
1
1
1
1
1
1
1
1
1
1
1
1
1
1
1
1
1
1
1.06966
1.16094
1.25676
1.36054
1.45659
1.53148
1.61501
1.73683
1.83399
1.87808
1.92006
1.9965
2.07378
2.08449
2.08508
2.09212
2.08961
2.07193
2.03439
1.98682
1.94057
1.89724
1.86926
1.85374
1.84038
1.82252
1.8144
1.81533
1.82069
1.8325
1.84508
1.85528
1.86394
1.87195
1.87507
1.87455
1.87317
1.87238
1.87378
1.87507
1.87501
1.87634
1.88417
1.8915
1.8934
1.89344
1.89201
1.88785
1.88318
1.88051
1.88022
1.88109
1.88321
1.88863
1.89528
1.89879
1.89938
1.89876
1.89521
1.88837
1.88083
1.87789
1.87803
1.88059
1.8874
1.89709
1.9026
1.90376
1.90319
1.89941
1.89331
1.88749
1.88382
1.88212
1.88176
1.8827
1.88619
1.89153
1.89904
1.90497
1
1
0.999943
0.999326
1.00715
1.05121
1.06966
1.10053
1.20963
1.3348
1.39242
1.4577
1.56135
1.64698
1.67866
1.71941
1.78011
1.79801
1.81011
1.84979
1.88712
1.91567
1.91837
1.91899
1.92426
1.92476
1.91679
1.90102
1.88658
1.88011
1.87489
1.87074
1.86626
1.86674
1.86975
1.87533
1.8786
1.88205
1.88412
1.884
1.88344
1.88294
1.88484
1.88905
1.89262
1.89435
1.89449
1.89346
1.89241
1.89286
1.89317
1.89251
1.89135
1.89108
1.89131
1.89434
1.89766
1.89851
1.89762
1.89457
1.89329
1.89216
1.89189
1.89336
1.89483
1.89514
1.89609
1.89789
1.89816
1.89746
1.89581
1.89478
1.8948
1.89502
1.89556
1.89609
1.89688
1.89788
1.89838
1.89919
1
1
1
1
0.999999
1
1
1
1
1
0.999502
1.00105
1.02167
1.08906
1.16786
1.27067
1.43962
1.60436
1.73169
1.88492
1.95854
1.99181
2.02034
2.01705
2.0112
2.00695
1.99864
1.98205
1.95902
1.93218
1.90891
1.89117
1.88779
1.88931
1.89259
1.89662
1.90205
1.90825
1.90955
1.90842
1.90678
1.90536
1.9038
1.90384
1.90438
1.90445
1.90596
1.91044
1.91352
1.9141
1.91381
1.91236
1.90994
1.90557
1.90253
1.90215
1.90255
1.90495
1.90811
1.90999
1.91033
1.91032
1.91015
1.90959
1.9084
1.90528
1.90192
1.89968
1.89901
1.89993
1.90412
1.90876
1.91108
1.9125
1.91304
1.91261
1.91038
1.90828
1.90583
1.90253
1
1
1
1
1
1
1
1
1
1
1
1
1
1
1
0.999829
0.999474
1.02872
1.12441
1.2888
1.54694
1.71138
1.84624
1.91223
1.94047
1.98006
1.98013
1.97498
1.97659
1.98391
1.97918
1.96291
1.95459
1.95139
1.94657
1.94231
1.93775
1.93433
1.9302
1.92554
1.92259
1.92409
1.92637
1.92617
1.92494
1.92442
1.92488
1.9293
1.93747
1.94088
1.94069
1.93849
1.93273
1.92478
1.91987
1.91869
1.91868
1.92018
1.92443
1.92864
1.93128
1.93255
1.93245
1.93078
1.92669
1.92057
1.91463
1.91182
1.91119
1.91151
1.91331
1.91866
1.92567
1.92931
1.92978
1.92846
1.9249
1.92023
1.91495
1.90963
1
1
1
1
1
1
1
1
1
1
1
1
1
1
1
1
1
1
1
0.999514
1.00502
1.04796
1.14734
1.3754
1.58031
1.72901
1.84603
1.91229
2.0028
2.03279
2.02706
2.02423
2.0205
2.01292
1.99897
1.97267
1.95173
1.94653
1.94751
1.94941
1.95074
1.95075
1.94935
1.9461
1.94136
1.93907
1.94035
1.94481
1.95267
1.95801
1.95847
1.95756
1.95405
1.94805
1.9412
1.93872
1.93858
1.93914
1.94121
1.94388
1.94664
1.94921
1.95019
1.94884
1.94377
1.93692
1.93222
1.93045
1.92935
1.92842
1.92828
1.9295
1.93393
1.93885
1.94118
1.94118
1.93875
1.93292
1.92725
1.92312
1
1
1
1
1
1
1
1
1
1
1
1
1
1
1
1
1
1
1
1
1
1
1
0.999333
1.00943
1.05543
1.24059
1.42258
1.59101
1.74521
1.84426
1.94303
1.98854
1.98902
1.9772
1.95951
1.95769
1.95924
1.96428
1.9724
1.97957
1.97975
1.97465
1.96588
1.95552
1.94526
1.94386
1.94515
1.95062
1.95954
1.96253
1.9629
1.96288
1.96225
1.96092
1.95873
1.95755
1.95685
1.95538
1.95442
1.95401
1.95402
1.95473
1.95556
1.95556
1.9553
1.95469
1.95339
1.95113
1.94767
1.94623
1.94633
1.94608
1.94544
1.94506
1.94457
1.94436
1.9443
1.94395
1.94185
1
1
1
1
1
1
1
1
1
1
1
1
1
1
1
1
1
1
1
1
1
1
1
1
1
1
0.999996
0.999457
1.01195
1.12715
1.30186
1.47715
1.65291
1.79895
1.92269
1.94291
1.96058
1.97461
1.97732
1.98192
1.98331
1.98267
1.97807
1.97054
1.95787
1.94719
1.94594
1.94721
1.95111
1.95586
1.95803
1.95955
1.96138
1.96432
1.96732
1.97006
1.97077
1.96971
1.96538
1.96039
1.95526
1.95292
1.95249
1.95403
1.96025
1.96683
1.97017
1.97064
1.96986
1.96647
1.96156
1.95726
1.95313
1.95052
1.94859
1.9476
1.94815
1.95045
1.95425
1.95576
1
1
1
1
1
1
1
1
1
1
1
1
1
1
1
1
1
1
1
1
1
1
1
1
1
1
1
1
1
1
0.999464
1.0044
1.07033
1.17661
1.37456
1.57137
1.71634
1.82644
1.87582
1.91592
1.92456
1.93553
1.95017
1.96186
1.96127
1.96072
1.95798
1.95723
1.95623
1.95436
1.95113
1.94894
1.94922
1.9518
1.95879
1.96665
1.97269
1.97403
1.97241
1.96269
1.954
1.95183
1.95173
1.95331
1.95968
1.96883
1.9739
1.97531
1.97462
1.97103
1.96503
1.95915
1.95626
1.95471
1.9536
1.9534
1.95387
1.95465
1.95603
1.95927
1
1
1
1
1
1
1
1
1
1
1
1
1
1
1
1
1
1
1
1
1
1
1
1
1
1
1
1
1
1
1
1
1
0.999751
1.0001
1.03003
1.09777
1.2837
1.5216
1.66971
1.76226
1.82521
1.89885
1.93477
1.94829
1.95617
1.95579
1.9538
1.95188
1.94897
1.94101
1.93357
1.93291
1.9354
1.94253
1.95552
1.96593
1.96775
1.9675
1.96641
1.96001
1.95313
1.95092
1.95141
1.95622
1.95991
1.96299
1.9662
1.96695
1.96535
1.96421
1.96497
1.96589
1.96534
1.96353
1.9603
1.95797
1.95838
1.96027
1.96121
1
1
1
1
1
1
1
1
1
1
1
1
1
1
1
1
1
1
1
1
1
1
1
1
1
1
1
1
1
1
1
1
1
1
1
1
0.999895
0.999642
1.02094
1.06852
1.23395
1.4169
1.58564
1.71178
1.79192
1.87357
1.91687
1.92482
1.93132
1.93779
1.93631
1.92755
1.92138
1.92148
1.92797
1.93807
1.94761
1.95293
1.95512
1.95563
1.95593
1.95663
1.95579
1.95567
1.95485
1.95336
1.95245
1.95195
1.95055
1.95043
1.95239
1.95863
1.96467
1.96729
1.96811
1.96799
1.9668
1.96479
1.96227
1.95947
1
1
1
1
1
1
1
1
1
1
1
1
1
1
1
1
1
1
1
1
1
1
1
1
1
1
1
1
1
1
1
1
1
1
1
1
1
1
1
1
0.999527
1.0051
1.0396
1.20711
1.40258
1.55827
1.69399
1.79674
1.88525
1.90994
1.91841
1.92426
1.92536
1.91932
1.91787
1.92114
1.92421
1.92376
1.92469
1.931
1.9414
1.94858
1.95436
1.95693
1.9577
1.95652
1.94921
1.93976
1.93718
1.93757
1.9401
1.9472
1.9569
1.96326
1.96434
1.96415
1.96436
1.96507
1.96473
1.95875
1
1
1
1
1
1
1
1
1
1
1
1
1
1
1
1
1
1
1
1
1
1
1
1
1
1
1
1
1
1
1
1
1
1
1
1
1
1
1
1
1
1
1
0.999652
1.00513
1.04217
1.21277
1.38669
1.56192
1.67492
1.78255
1.88457
1.90921
1.90639
1.91288
1.91529
1.91137
1.90279
1.89713
1.89948
1.9098
1.92949
1.94053
1.94323
1.94603
1.94907
1.94949
1.94332
1.93388
1.93059
1.9309
1.93678
1.94516
1.94723
1.94896
1.95127
1.9552
1.95891
1.95893
1.95773
1
1
1
1
1
1
1
1
1
1
1
1
1
1
1
1
1
1
1
1
1
1
1
1
1
1
1
1
1
1
1
1
1
1
1
1
1
1
1
1
1
1
1
1
1
1
0.999878
1.00408
1.0495
1.21229
1.3744
1.57661
1.71409
1.82997
1.89108
1.90562
1.906
1.90353
1.88993
1.8872
1.89412
1.90739
1.91449
1.91519
1.92076
1.93165
1.93707
1.93552
1.93492
1.93691
1.93854
1.93929
1.93806
1.93502
1.93361
1.93466
1.93836
1.94487
1.94893
1.94955
1
1
1
1
1
1
1
1
1
1
1
1
1
1
1
1
1
1
1
1
1
1
1
1
1
1
1
1
1
1
1
1
1
1
1
1
1
1
1
1
1
1
1
1
1
1
1
1
0.999976
1.00016
1.00564
1.08305
1.27489
1.45906
1.61571
1.746
1.86302
1.89633
1.89263
1.89673
1.91016
1.9057
1.89862
1.89135
1.89049
1.89697
1.90839
1.91771
1.92231
1.92588
1.93181
1.93792
1.94011
1.93582
1.92503
1.92263
1.92486
1.93102
1.93461
1.93685
1
1
1
1
1
1
1
1
1
1
1
1
1
1
1
1
1
1
1
1
1
1
1
1
1
1
1
1
1
1
1
1
1
1
1
1
1
1
1
1
1
1
1
1
1
1
1
1
1
1
1
0.999848
1.00127
1.02059
1.13598
1.29423
1.51657
1.69251
1.81153
1.87183
1.90029
1.90365
1.90326
1.89564
1.88444
1.88571
1.8905
1.8972
1.90065
1.90646
1.92069
1.93139
1.933
1.92924
1.92594
1.92508
1.92387
1.92378
1.92438
1.92704
1
1
1
1
1
1
1
1
1
1
1
1
1
1
1
1
1
1
1
1
1
1
1
1
1
1
1
1
1
1
1
1
1
1
1
1
1
1
1
1
1
1
1
1
1
1
1
1
1
1
1
0.999999
0.999997
1.00001
0.999997
1.00231
1.04728
1.26685
1.48216
1.60338
1.73112
1.86453
1.90474
1.90324
1.90253
1.91215
1.90715
1.89547
1.88908
1.88859
1.89705
1.91077
1.91814
1.91696
1.91548
1.91574
1.91884
1.92435
1.92593
1.92438
1
1
1
1
1
1
1
1
1
1
1
1
1
1
1
1
1
1
1
1
1
1
1
1
1
1
1
1
1
1
1
1
1
1
1
1
1
1
1
1
1
1
1
1
1
1
1
1
1
1
1
1
1
1
1
0.999999
0.999926
1.00274
1.02821
1.14315
1.30481
1.54948
1.73616
1.83667
1.88443
1.90175
1.90289
1.90412
1.90329
1.89876
1.89797
1.90001
1.89978
1.89887
1.89527
1.89754
1.91185
1.92239
1.92336
1.92204
1
1
1
1
1
1
1
1
1
1
1
1
1
1
1
1
1
1
1
1
1
1
1
1
1
1
1
1
1
1
1
1
1
1
1
1
1
1
1
1
1
1
1
1
1
1
1
1
1
1
1
1
1
1
1
1
0.999999
1
0.999968
1.00034
1.00443
1.07339
1.34216
1.5965
1.68881
1.77752
1.87161
1.91062
1.91434
1.91444
1.92131
1.92044
1.90864
1.89271
1.88638
1.88896
1.90007
1.91195
1.91438
1.91534
1
1
1
1
1
1
1
1
1
1
1
1
1
1
1
1
1
1
1
1
1
1
1
1
1
1
1
1
1
1
1
1
1
1
1
1
1
1
1
1
1
1
1
1
1
1
1
1
1
1
1
1
1
1
1
1
1
1
0.999999
0.999999
0.999989
1.00011
1.01002
1.09198
1.28289
1.45339
1.6717
1.80748
1.85639
1.8951
1.91144
1.91153
1.90662
1.90053
1.90142
1.90338
1.90727
1.90765
1.90553
1.903
1
1
1
1
1
1
1
1
1
1
1
1
1
1
1
1
1
1
1
1
1
1
1
1
1
1
1
1
1
1
1
1
1
1
1
1
1
1
1
1
1
1
1
1
1
1
1
1
1
1
1
1
1
1
1
1
1
1
1
1
0.999999
0.999999
0.999983
1.00013
1.00555
1.0343
1.2093
1.54422
1.7615
1.80648
1.84598
1.88563
1.89733
1.90012
1.9116
1.92359
1.92897
1.92533
1.9124
1.89974
1
1
1
1
1
1
1
1
1
1
1
1
1
1
1
1
1
1
1
1
1
1
1
1
1
1
1
1
1
1
1
1
1
1
1
1
1
1
1
1
1
1
1
1
1
1
1
1
1
1
1
1
1
1
1
1
1
1
1
1
1
1
0.999999
0.999999
1
0.999987
1.00369
1.06771
1.35372
1.56411
1.69691
1.82132
1.8428
1.85404
1.88317
1.91121
1.92098
1.91822
1.90671
1.90481
1
1
1
1
1
1
1
1
1
1
1
1
1
1
1
1
1
1
1
1
1
1
1
1
1
1
1
1
1
1
1
1
1
1
1
1
1
1
1
1
1
1
1
1
1
1
1
1
1
1
1
1
1
1
1
1
1
1
1
1
1
1
1
1
1
1
0.99999
1.0002
1.01574
1.09598
1.24433
1.5363
1.80406
1.85044
1.87284
1.88938
1.90104
1.89456
1.88673
1.89866
1
1
1
1
1
1
1
1
1
1
1
1
1
1
1
1
1
1
1
1
1
1
1
1
1
1
1
1
1
1
1
1
1
1
1
1
1
1
1
1
1
1
1
1
1
1
1
1
1
1
1
1
1
1
1
1
1
1
1
1
1
1
1
1
1
1
0.999999
0.999999
0.999994
1.00028
1.00686
1.06866
1.39695
1.69897
1.83127
1.89717
1.89327
1.87787
1.86628
1.88284
1
1
1
1
1
1
1
1
1
1
1
1
1
1
1
1
1
1
1
1
1
1
1
1
1
1
1
1
1
1
1
1
1
1
1
1
1
1
1
1
1
1
1
1
1
1
1
1
1
1
1
1
1
1
1
1
1
1
1
1
1
1
1
1
1
1
1
1
1
0.999999
0.99999
1.00039
1.03308
1.27313
1.49213
1.72104
1.84686
1.8849
1.89646
1.89568
1
1
1
1
1
1
1
1
1
1
1
1
1
1
1
1
1
1
1
1
1
1
1
1
1
1
1
1
1
1
1
1
1
1
1
1
1
1
1
1
1
1
1
1
1
1
1
1
1
1
1
1
1
1
1
1
1
1
1
1
1
1
1
1
1
1
1
1
1
1
0.999999
0.999998
1.00012
1.00758
1.07772
1.24843
1.55024
1.78506
1.91238
1.91346
1
1
1
1
1
1
1
1
1
1
1
1
1
1
1
1
1
1
1
1
1
1
1
1
1
1
1
1
1
1
1
1
1
1
1
1
1
1
1
1
1
1
1
1
1
1
1
1
1
1
1
1
1
1
1
1
1
1
1
1
1
1
1
1
1
1
1
1
1
1
1
1
1
0.999993
1.00039
1.00622
1.11771
1.44436
1.7158
1.88043
1
1
1
1
1
1
1
1
1
1
1
1
1
1
1
1
1
1
1
1
1
1
1
1
1
1
1
1
1
1
1
1
1
1
1
1
1
1
1
1
1
1
1
1
1
1
1
1
1
1
1
1
1
1
1
1
1
1
1
1
1
1
1
1
1
1
1
1
1
1
1
1
1
0.999999
0.999999
0.999999
1.00158
1.0648
1.30407
1.73988
1
1
1
1
1
1
1
1
1
1
1
1
1
1
1
1
1
1
1
1
1
1
1
1
1
1
1
1
1
1
1
1
1
1
1
1
1
1
1
1
1
1
1
1
1
1
1
1
1
1
1
1
1
1
1
1
1
1
1
1
1
1
1
1
1
1
1
1
1
1
1
1
1
1
1
1
0.999998
1.00086
1.0175
1.40445
1
1
1
1
1
1
1
1
1
1
1
1
1
1
1
1
1
1
1
1
1
1
1
1
1
1
1
1
1
1
1
1
1
1
1
1
1
1
1
1
1
1
1
1
1
1
1
1
1
1
1
1
1
1
1
1
1
1
1
1
1
1
1
1
1
1
1
1
1
1
1
1
1
1
1
1
1
0.999998
1.00012
1.05904
1
1
1
1
1
1
1
1
1
1
1
1
1
1
1
1
1
1
1
1
1
1
1
1
1
1
1
1
1
1
1
1
1
1
1
1
1
1
1
1
1
1
1
1
1
1
1
1
1
1
1
1
1
1
1
1
1
1
1
1
1
1
1
1
1
1
1
1
1
1
1
1
1
1
1
1
1
1
1
1.00195
1
1
1
1
1
1
1
1
1
1
1
1
1
1
1
1
1
1
1
1
1
1
1
1
1
1
1
1
1
1
1
1
1
1
1
1
1
1
1
1
1
1
1
1
1
1
1
1
1
1
1
1
1
1
1
1
1
1
1
1
1
1
1
1
1
1
1
1
1
1
1
1
1
1
1
1
1
1
1
1.00003
1
1
1
1
1
1
1
1
1
1
1
1
1
1
1
1
1
1
1
1
1
1
1
1
1
1
1
1
1
1
1
1
1
1
1
1
1
1
1
1
1
1
1
1
1
1
1
1
1
1
1
1
1
1
1
1
1
1
1
1
1
1
1
1
1
1
1
1
1
1
1
1
1
1
1
1
1
1
1
1
1
1
1
1
1
1
1
1
1
1
1
1
1
1
1
1
1
1
1
1
1
1
1
1
1
1
1
1
1
1
1
1
1
1
1
1
1
1
1
1
1
1
1
1
1
1
1
1
1
1
1
1
1
1
1
1
1
1
1
1
1
1
1
1
1
1
1
1
1
1
1
1
1
1
1
1
1
1
1
1
1
1
1
1
1
1
1
1
1
1
1
1
1
1
1
1
1
1
1
1
1
1
1
1
1
1
1
1
1
1
1
1
1
1
1
1
1
1
1
1
1
1
1
1
1
1
1
1
1
1
1
1
1
1
1
1
1
1
1
1
1
1
1
1
1
1
1
1
1
1
1
1
1
1
1
1
1
1
1
1
1
1
1
1
1
1
1
1
1
1
1
1
1
1
1
1
1
1
1
1
1
1
1
1
1
1
1
1
1
1
1
1
1
1
1
1
1
1
1
1
1
1
1
1
1
1
1
1
1
1
1
1
1
1
1
1
1
1
1
1
1
1
1
1
1
1
1
1
1
1
1
1
1
1
1
1
1
1
1
1
1
1
1
1
1
1
1
1
1
1
1
1
1
1
1
1
1
1
1
1
1
1
1
1
1
1
1
1
1
1
1
1
1
1
1
1
1
1
1
1
1
1
1
1
1
1
1
1
1
1
1
1
1
1
1
1
1
1
1
1
1
1
1
1
1
1
1
1
1
1
1
1
1
1
1
1
1
1
1
1
1
1
1
1
1
1
1
1
1
1
1
1
1
1
1
1
1
1
1
1
1
1
1
1
1
1
1
1
1
1
1
1
1
1
1
1
1
1
1
1
1
1
1
1
1
1
1
1
1
1
1
1
1
1
1
1
1
1
1
1
1
1
1
1
1
1
1
1
1
1
1
1
1
1
1
1
1
1
1
1
1
1
1
1
1
1
1
1
1
1
1
1
1
1
1
1
1
1
1
1
1
1
1
1
1
1
1
1
1
1
1
1
1
1
1
1
1
1
1
1
1
1
1
1
1
1
1
1
1
1
1
1
1
1
1
1
1
1
1
1
1
1
1
1
1
1
1
1
1
1
1
1
1
1
1
1
1
1
1
1
1
1
1
1
1
1
1
1
1
1
1
1
1
1
1
1
1
1
1
1
1
1
1
1
1
1
1
1
1
1
1
1
1
1
1
1
1
1
1
1
1
1
1
1
1
1
1
1
1
1
1
1
1
1
1
1
1
1
1
1
1
1
1
1
1
1
1
1
1
1
1
1
1
1
1
1
1
1
1
1
1
1
1
1
1
1
1
1
1
1
1
1
1
1
1
1
1
1
1
1
1
1
1
1
1
1
1
1
1
1
1
1
1
1
1
1
1
1
1
1
1
1
1
1
1
1
1
1
1
1
1
1
1
1
1
1
1
1
1
1
1
1
1
1
1
1
1
1
1
1
1
1
1
1
1
1
1
1
1
1
)
;

boundaryField
{
    inlet
    {
        type            fixedValue;
        value           uniform 1;
    }
    outlet
    {
        type            zeroGradient;
    }
    bottom
    {
        type            symmetryPlane;
    }
    top
    {
        type            symmetryPlane;
    }
    obstacle
    {
        type            zeroGradient;
    }
    defaultFaces
    {
        type            empty;
    }
}


// ************************************************************************* //
