/*--------------------------------*- C++ -*----------------------------------*\
| =========                 |                                                 |
| \\      /  F ield         | OpenFOAM: The Open Source CFD Toolbox           |
|  \\    /   O peration     | Version:  2206                                  |
|   \\  /    A nd           | Website:  www.openfoam.com                      |
|    \\/     M anipulation  |                                                 |
\*---------------------------------------------------------------------------*/
FoamFile
{
    version     2.0;
    format      ascii;
    arch        "LSB;label=32;scalar=64";
    class       volScalarField;
    location    "0.08";
    object      rho;
}
// * * * * * * * * * * * * * * * * * * * * * * * * * * * * * * * * * * * * * //

dimensions      [1 -3 0 0 0 0 0];

internalField   nonuniform List<scalar> 
4800
(
1.40001
1.40001
1.40001
1.40001
1.40001
1.40001
1.40001
1.40001
1.40001
1.40001
1.40001
1.40001
1.40001
1.40001
1.40001
1.40001
1.40001
1.40001
1.40001
1.40001
1.40001
1.40001
1.40001
1.40001
1.40001
1.40001
1.40001
1.40001
1.40001
1.40001
1.40001
1.40001
1.40001
1.40001
1.40001
1.40001
1.40001
1.40001
1.40001
1.40001
1.40001
1.40001
1.40001
1.40001
1.40001
1.40001
1.40001
1.40001
1.40001
1.40001
1.40001
1.40001
1.40001
1.40001
1.40001
1.40001
1.40001
1.40001
1.40001
1.40001
1.40001
1.40001
1.40001
1.40001
1.40001
1.40001
1.40001
1.40001
1.40001
1.40001
1.40001
1.40001
1.40001
1.40001
1.40001
1.40001
1.40001
1.40001
1.40001
1.40001
1.40001
1.40001
1.40001
1.40001
1.40001
1.40001
1.40001
1.40001
1.40001
1.40001
1.40001
1.40001
1.40001
1.40001
1.40001
1.40001
1.40001
1.40001
1.40001
1.40001
1.40001
1.40001
1.40001
1.40001
1.40001
1.40001
1.40001
1.40001
1.40001
1.40001
1.40001
1.40001
1.40001
1.40001
1.40001
1.40001
1.40001
1.40001
1.40001
1.40001
1.40001
1.40001
1.40001
1.40001
1.40001
1.40001
1.40001
1.40001
1.40001
1.40001
1.40001
1.40001
1.40001
1.40001
1.40001
1.40001
1.40001
1.40001
1.40001
1.40001
1.40001
1.40001
1.40001
1.40001
1.40001
1.40001
1.40001
1.40001
1.40001
1.40001
1.40001
1.40001
1.40001
1.40001
1.40001
1.40001
1.40001
1.40001
1.40001
1.40001
1.40001
1.40001
1.40001
1.40001
1.40001
1.40001
1.40001
1.40001
1.40001
1.40001
1.40001
1.40001
1.40001
1.40001
1.40001
1.40001
1.40001
1.40001
1.40001
1.40001
1.40001
1.40001
1.40001
1.40001
1.40001
1.40001
1.40001
1.40001
1.40001
1.40001
1.40001
1.40001
1.40001
1.40001
1.40001
1.40001
1.40001
1.40001
1.40001
1.40001
1.40001
1.40001
1.40001
1.40001
1.40001
1.40001
1.40001
1.40001
1.40001
1.40001
1.40001
1.40001
1.40001
1.40001
1.40001
1.40001
1.40001
1.40001
1.40001
1.40001
1.40001
1.40001
1.40001
1.40001
1.40001
1.40001
1.40001
1.40001
1.40001
1.40001
1.40001
1.40001
1.40001
1.40001
1.40001
1.40001
1.40001
1.40001
1.40001
1.40001
1.40001
1.40001
1.40001
1.40001
1.40001
1.40001
1.40001
1.40001
1.40001
1.40001
1.40001
1.40001
1.40001
1.40001
1.40001
1.40001
1.40001
1.40001
1.40001
1.40001
1.40001
1.40001
1.40001
1.40001
1.40001
1.40001
1.40001
1.40001
1.40001
1.40001
1.40001
1.40001
1.40001
1.40001
1.40001
1.40001
1.40001
1.40001
1.40001
1.40001
1.40001
1.40001
1.40001
1.40001
1.40001
1.40001
1.40001
1.40001
1.40001
1.40001
1.40001
1.40001
1.40001
1.40001
1.40001
1.40001
1.40001
1.40001
1.40001
1.40001
1.40001
1.40001
1.40001
1.40001
1.40001
1.40001
1.40001
1.40001
1.40001
1.40001
1.40001
1.40001
1.40001
1.40001
1.40001
1.40001
1.40001
1.40001
1.40001
1.40001
1.40001
1.40001
1.40001
1.40001
1.40001
1.40001
1.40001
1.40001
1.40001
1.40001
1.40001
1.40001
1.40001
1.40001
1.40001
1.40001
1.40001
1.40001
1.40001
1.40001
1.40001
1.40001
1.40001
1.40001
1.40001
1.40001
1.40001
1.40001
1.40001
1.40001
1.40001
1.40001
1.40001
1.40001
1.40001
1.40001
1.40001
1.40001
1.40001
1.40001
1.40001
1.40001
1.40001
1.40001
1.40001
1.40001
1.40001
1.40001
1.40001
1.40001
1.40001
1.40001
1.40001
1.40001
1.40001
1.40001
1.40001
1.40001
1.40001
1.40001
1.40001
1.40001
1.40001
1.40001
1.40001
1.40001
1.40001
1.40001
1.40001
1.40001
1.40001
1.40001
1.40001
1.40001
1.40001
1.40001
1.40001
1.40001
1.40001
1.40001
1.40001
1.40001
1.40001
1.40001
1.40001
1.40001
1.40001
1.40001
1.40001
1.40001
1.40001
1.40001
1.40001
1.40001
1.40001
1.40001
1.40001
1.40001
1.40001
1.40001
1.40001
1.40001
1.40001
1.40001
1.40001
1.40001
1.40001
1.40001
1.40001
1.40001
1.40001
1.40001
1.40001
1.40001
1.40001
1.40001
1.40001
1.40001
1.40001
1.40001
1.40001
1.40001
1.40001
1.40001
1.40001
1.40001
1.40001
1.40001
1.40001
1.40001
1.40001
1.40001
1.40001
1.40001
1.40001
1.40001
1.40001
1.40001
1.40001
1.40001
1.40001
1.40001
1.40001
1.40001
1.40001
1.40001
1.40001
1.40001
1.40001
1.40001
1.40001
1.40001
1.40001
1.40001
1.40001
1.40001
1.40001
1.40001
1.40001
1.40001
1.40001
1.40001
1.40001
1.40001
1.40001
1.40001
1.40001
1.40001
1.40001
1.40001
1.40001
1.40001
1.40001
1.40001
1.40001
1.40001
1.40001
1.40001
1.40001
1.40001
1.40001
1.40001
1.40001
1.40001
1.40001
1.40001
1.40001
1.40001
1.40001
1.40001
1.40001
1.40001
1.40001
1.40001
1.40001
1.40001
1.40001
1.40001
1.40001
1.40001
1.40001
1.40001
1.40001
1.40001
1.40001
1.40001
1.40001
1.40001
1.40001
1.40001
1.40001
1.40001
1.40001
1.40001
1.40001
1.40001
1.40001
1.40001
1.40001
1.40001
1.40001
1.40001
1.40001
1.40001
1.40001
1.40001
1.40001
1.40001
1.40001
1.40001
1.40001
1.40001
1.40001
1.40001
1.40001
1.40001
1.40001
1.40001
1.40001
1.40001
1.40001
1.40001
1.40001
1.40001
1.40001
1.40001
1.40001
1.40001
1.40001
1.40001
1.40001
1.40001
1.40001
1.40001
1.40001
1.40001
1.40001
1.40001
1.40001
1.40001
1.40001
1.40001
1.40001
1.40001
1.40001
1.40001
1.40001
1.40001
1.40001
1.40001
1.40001
1.40001
1.40001
1.40001
1.40001
1.40001
1.40001
1.40001
1.40001
1.40001
1.40001
1.40001
1.40001
1.40001
1.40001
1.40001
1.40001
1.40001
1.40001
1.40001
1.40001
1.40001
1.40001
1.40001
1.40001
1.40001
1.40001
1.40001
1.40001
1.40001
1.40001
1.40001
1.40001
1.40001
1.40001
1.40001
1.40001
1.40001
1.40001
1.40001
1.40001
1.40001
1.40001
1.40001
1.40001
1.40001
1.40001
1.40001
1.40001
1.40001
1.40001
1.40001
1.40001
1.40001
1.40001
1.40001
1.40001
1.40001
1.40001
1.40001
1.40001
1.40001
1.40001
1.40001
1.40001
1.40001
1.40001
1.40001
1.40001
1.40001
1.40001
1.40001
1.40001
1.40001
1.40001
1.40001
1.40001
1.40001
1.40001
1.40001
1.40001
1.40001
1.40001
1.40001
1.40001
1.40001
1.40001
1.40001
1.40001
1.40001
1.40001
1.40001
1.40001
1.40001
1.40001
1.40001
1.40001
1.40001
1.40001
1.40001
1.40001
1.40001
1.40001
1.40001
1.40001
1.40001
1.40001
1.40001
1.40001
1.40001
1.40001
1.40001
1.40001
1.40001
1.40001
1.40001
1.40001
1.40001
1.40001
1.40001
1.40001
1.40001
1.40001
1.40001
1.40001
1.40001
1.40001
1.40001
1.40001
1.40001
1.40001
1.40001
1.40001
1.40001
1.40001
1.40001
1.40001
1.40001
1.40001
1.40001
1.40001
1.40001
1.40001
1.40001
1.40001
1.40001
1.40001
1.40001
1.40001
1.40001
1.40001
1.40001
1.40001
1.40001
1.40001
1.40001
1.40001
1.40001
1.40001
1.40001
1.40001
1.40001
1.40001
1.40001
1.40001
1.40001
1.40001
1.40001
1.40001
1.40001
1.40001
1.40001
1.40001
1.40001
1.40001
1.40001
1.40001
1.40001
1.40001
1.40001
1.40001
1.40001
1.40001
1.40001
1.40001
1.40001
1.40001
1.40001
1.40001
1.40001
1.40001
1.40001
1.40001
1.40001
1.40001
1.40001
1.40001
1.40001
1.40001
1.40001
1.40001
1.40001
1.40001
1.40001
1.40001
1.40001
1.40001
1.40001
1.40001
1.40001
1.40001
1.40001
1.40001
1.40001
1.40001
1.40001
1.40001
1.40001
1.40001
1.40001
1.40001
1.40001
1.40001
1.40001
1.40001
1.40001
1.40001
1.40001
1.40001
1.40001
1.40001
1.40001
1.40001
1.40001
1.40001
1.40001
1.40001
1.40001
1.40001
1.40001
1.40001
1.40001
1.40001
1.40001
1.40001
1.40001
1.40001
1.40001
1.40001
1.40001
1.40001
1.40001
1.40001
1.40001
1.40001
1.40001
1.40001
1.40001
1.40001
1.40001
1.40001
1.40001
1.40001
1.40001
1.40001
1.40001
1.40001
1.40001
1.40001
1.40001
1.40001
1.40001
1.40001
1.40001
1.40001
1.40001
1.40001
1.40001
1.40001
1.40001
1.40001
1.40001
1.40001
1.40001
1.40001
1.40001
1.40001
1.40001
1.40001
1.40001
1.40001
1.40001
1.40001
1.40001
1.40001
1.40001
1.40001
1.40001
1.40001
1.40001
1.40001
1.40001
1.40001
1.40001
1.40001
1.40001
1.40001
1.40001
1.40001
1.40001
1.40001
1.40001
1.40001
1.40001
1.40001
1.40001
1.40001
1.40001
1.40001
1.40001
1.40001
1.40001
1.40001
1.40001
1.40001
1.40001
1.40001
1.40001
1.40001
1.40001
1.40001
1.40001
1.40001
1.40001
1.40001
1.40001
1.40001
1.40001
1.40001
1.40001
1.40001
1.40001
1.40001
1.40001
1.40001
1.40001
1.40001
1.40001
1.40001
1.40001
1.40001
1.40001
1.40001
1.40001
1.40001
1.40001
1.40001
1.40001
1.40001
1.40001
1.40001
1.40001
1.40001
1.40001
1.40001
1.40001
1.40001
1.40001
1.40001
1.40001
1.40001
1.40001
1.40001
1.40001
1.40001
1.40001
1.40001
1.40001
1.40001
1.40001
1.40001
1.40001
1.40001
1.40001
1.40001
1.40001
1.40001
1.40001
1.40001
1.40001
1.40001
1.40001
1.40001
1.40001
1.40001
1.40001
1.40001
1.40001
1.40001
1.40001
1.40001
1.40001
1.40001
1.40001
1.40001
1.40001
1.40001
1.40001
1.40001
1.40001
1.40001
1.40001
1.40001
1.40001
1.40001
1.40001
1.40001
1.40001
1.40001
1.40001
1.40001
1.40001
1.40001
1.40001
1.40001
1.40001
1.40001
1.40001
1.40001
1.40001
1.40001
1.40001
1.40001
1.40001
1.40001
1.40001
1.40001
1.40001
1.40001
1.40001
1.40001
1.40001
1.40001
1.40001
1.40001
1.40001
1.40001
1.40001
1.40001
1.40001
1.40001
1.40001
1.40001
1.40001
1.40001
1.40001
1.40001
1.40001
1.40001
1.40001
1.40001
1.40001
1.40001
1.40001
1.40001
1.40001
1.40001
1.40001
1.40001
1.40001
1.40001
1.40001
1.40001
1.40001
1.40001
1.40001
1.40001
1.40001
1.40001
1.40001
1.40001
1.40001
1.40001
1.40001
1.40001
1.40001
1.40001
1.40001
1.40001
1.40001
1.40001
1.40001
1.40001
1.40001
1.40001
1.40001
1.40001
1.40001
1.40001
1.40001
1.40001
1.40001
1.40001
1.40001
1.40001
1.40001
1.40001
1.40001
1.40001
1.40001
1.40001
1.40001
1.40001
1.40001
1.40001
1.40001
1.40001
1.40001
1.40001
1.40001
1.40001
1.40001
1.40001
1.40001
1.40001
1.40001
1.40001
1.40001
1.40001
1.40001
1.40001
1.40001
1.40001
1.40001
1.40001
1.40001
1.40001
1.40001
1.40001
1.40001
1.40001
1.40001
1.40001
1.40001
1.40001
1.40001
1.40001
1.40001
1.40001
1.40001
1.40001
1.40001
1.40001
1.40001
1.40001
1.40001
1.40001
1.40001
1.40001
1.40001
1.40001
1.40001
1.40001
1.40001
1.40001
1.40001
1.40001
1.40001
1.40001
1.40001
1.40001
1.40001
1.40001
1.40001
1.40001
1.40001
1.40001
1.40001
1.40001
1.40001
1.40001
1.40001
1.40001
1.40001
1.40001
1.40001
1.40001
1.40001
1.40001
1.40001
1.40001
1.40001
1.40001
1.40001
1.40001
1.40001
1.40001
1.40001
1.40001
1.40001
1.40001
1.40001
1.40001
1.40001
1.40001
1.40001
1.40001
1.40001
1.40001
1.40001
1.40001
1.40001
1.40001
1.40001
1.40001
1.40001
1.40001
1.40001
1.40001
1.40001
1.40001
1.40001
1.40001
1.40001
1.40001
1.40001
1.40001
1.40001
1.40001
1.40001
1.40001
1.40001
1.40001
1.40001
1.40001
1.40001
1.40001
1.40001
1.40001
1.40001
1.40001
1.40001
1.40001
1.40001
1.40001
1.40001
1.40001
1.40001
1.40001
1.40001
1.40001
1.40001
1.40001
1.40001
1.40001
1.40001
1.40001
1.40001
1.40001
1.40001
1.40001
1.40001
1.40001
1.40001
1.40001
1.40001
1.40001
1.40001
1.40001
1.40001
1.40001
1.40001
1.40001
1.40001
1.40001
1.40001
1.40001
1.40001
1.40001
1.40001
1.40001
1.40001
1.40001
1.40001
1.40001
1.40001
1.40001
1.40001
1.40001
1.40001
1.40001
1.40001
1.40001
1.40001
1.40001
1.40001
1.40001
1.40001
1.40001
1.40001
1.40001
1.40001
1.40001
1.40001
1.40001
1.40001
1.40001
1.40001
1.40001
1.40001
1.40001
1.40001
1.40001
1.40001
1.40001
1.40001
1.40001
1.40001
1.40001
1.40001
1.40001
1.40001
1.40001
1.40001
1.40001
1.40001
1.40001
1.40001
1.40001
1.40001
1.40001
1.40001
1.40001
1.40001
1.40001
1.40001
1.40001
1.40001
1.40001
1.40001
1.40001
1.40001
1.40001
1.40001
1.40001
1.40001
1.40001
1.40001
1.40001
1.40001
1.40001
1.40001
1.40001
1.40001
1.40001
1.40001
1.40001
1.40001
1.40001
1.40001
1.40001
1.40001
1.40001
1.40001
1.40001
1.40001
1.40001
1.40001
1.40001
1.40001
1.40001
1.40001
1.40001
1.40001
1.40001
1.40001
1.40001
1.40001
1.40001
1.40001
1.40001
1.40001
1.40001
1.40001
1.40001
1.40001
1.40001
1.40001
1.40001
1.40001
1.40001
1.40001
1.40001
1.40001
1.40001
1.40001
1.40001
1.40001
1.40001
1.40001
1.40001
1.40001
1.40001
1.40001
1.40001
1.40001
1.40001
1.40001
1.40001
1.40001
1.40001
1.40001
1.40001
1.40001
1.40001
1.40001
1.40001
1.40001
1.40001
1.40001
1.40001
1.40001
1.40001
1.40001
1.40001
1.40001
1.40001
1.40001
1.40001
1.40001
1.40001
1.40001
1.40001
1.40001
1.40001
1.40001
1.40001
1.40001
1.40001
1.40001
1.40001
1.40001
1.40001
1.40001
1.40001
1.40001
1.40001
1.40001
1.40001
1.40001
1.40001
1.40001
1.40001
1.40001
1.40001
1.40001
1.40001
1.40001
1.40001
1.40001
1.40001
1.40001
1.40001
1.40001
1.40001
1.40001
1.40001
1.40001
1.40001
1.40001
1.40001
1.40001
1.40001
1.40001
1.40001
1.40001
1.40001
1.40001
1.40001
1.40001
1.40001
1.40001
1.40001
1.40001
1.40001
1.40001
1.40001
1.40001
1.40001
1.40001
1.40001
1.40001
1.40001
1.40001
1.40001
1.40001
1.40001
1.40001
1.40001
1.40001
1.40001
1.40001
1.40001
1.40001
1.40001
1.40001
1.40001
1.40001
1.40001
1.40001
1.40001
1.40001
1.40001
1.40001
1.40001
1.40001
1.40001
1.40001
1.40001
1.40001
1.40001
1.40001
1.40001
1.40001
1.40001
1.40001
1.40001
1.40001
1.40001
1.40001
1.40001
1.40001
1.40001
1.40001
1.40001
1.40001
1.40001
1.40001
1.40001
1.40001
1.40001
1.40001
1.40001
1.40001
1.40001
1.40001
1.40001
1.40001
1.40001
1.40001
1.40001
1.40001
1.40001
1.40001
1.40001
1.40001
1.40001
1.40001
1.40001
1.40001
1.40001
1.40001
1.40001
1.40001
1.40001
1.40001
1.40001
1.40001
1.40001
1.40001
1.40001
1.40001
1.40001
1.40001
1.40001
1.40001
1.40001
1.40001
1.40001
1.40001
1.40001
1.40001
1.40001
1.40001
1.40001
1.40001
1.40001
1.40001
1.40001
1.40001
1.40001
1.40001
1.40001
1.40001
1.40001
1.40001
1.40001
1.40001
1.40001
1.40001
1.40001
1.40001
1.40001
1.40001
1.40001
1.40001
1.40001
1.40001
1.40001
1.40001
1.6534
2.02412
2.41582
2.84533
3.24832
3.52027
3.81859
4.24442
4.36914
4.46229
4.64911
4.6662
4.60719
4.46512
4.27737
4.08188
3.84669
3.63598
3.52962
3.51467
3.49394
3.46355
3.46115
3.48746
3.53363
3.58791
3.59865
3.59454
3.58764
3.58961
3.59683
3.60064
3.60141
3.60544
3.62274
3.64034
3.64635
3.64733
3.64362
3.63182
3.61928
3.60741
3.60088
3.60136
3.60305
3.60388
3.60457
3.60862
3.61817
3.628
3.63531
3.63984
3.6409
3.6394
3.63429
3.6264
3.61669
3.60994
3.60456
3.59743
3.58413
3.5621
3.53567
3.50965
3.49909
3.49765
3.49878
3.5055
3.51245
3.51273
3.50897
3.49712
3.47863
3.46395
3.45608
3.45149
3.44964
3.44916
3.4517
3.46012
1.39963
1.4026
1.41787
1.44234
1.52901
1.70033
1.85227
2.08507
2.41955
2.70151
3.06286
3.30972
3.52896
3.67328
3.74801
3.879
3.85465
3.8136
3.74329
3.73145
3.72505
3.68218
3.60572
3.58595
3.57256
3.5567
3.54723
3.54824
3.55485
3.56383
3.58039
3.59259
3.59383
3.59268
3.59407
3.59753
3.60391
3.61138
3.61566
3.61508
3.6135
3.61353
3.61647
3.6187
3.61842
3.61512
3.60846
3.60329
3.60299
3.60419
3.60617
3.6093
3.61423
3.61902
3.62077
3.62052
3.6209
3.62009
3.61658
3.60831
3.5929
3.57072
3.54163
3.50541
3.48867
3.4853
3.4833
3.4832
3.48856
3.4955
3.49542
3.48786
3.47407
3.46797
3.46386
3.45862
3.45404
3.4521
3.45193
3.45486
1.40001
1.4
1.40001
1.4
1.40001
1.40001
1.39944
1.40314
1.43145
1.49783
1.6418
1.92219
2.27291
2.77126
3.29647
3.67045
3.81003
3.89384
3.92784
3.91138
3.88279
3.81836
3.72999
3.5806
3.53361
3.51769
3.51082
3.51369
3.52457
3.5483
3.56633
3.57641
3.5774
3.57414
3.56342
3.55525
3.55731
3.56278
3.57034
3.58155
3.59164
3.59975
3.6068
3.61047
3.61093
3.60953
3.6059
3.59864
3.59138
3.58842
3.58626
3.58276
3.58066
3.58219
3.58738
3.59647
3.60712
3.61296
3.611
3.60324
3.58955
3.57047
3.54318
3.51078
3.48823
3.4773
3.47154
3.4675
3.46579
3.46705
3.47178
3.47202
3.46846
3.46402
3.46185
3.45984
3.45658
3.45255
3.451
3.45079
1.40001
1.40001
1.40001
1.40001
1.40001
1.40001
1.40001
1.40001
1.40001
1.40001
1.39966
1.40091
1.41217
1.49472
1.7172
2.1086
2.65245
3.05512
3.49133
3.60191
3.66959
3.67161
3.6311
3.63101
3.62817
3.62196
3.60119
3.56099
3.55233
3.53834
3.53396
3.53596
3.52918
3.51831
3.5143
3.5164
3.52374
3.53119
3.53628
3.53939
3.5462
3.55811
3.57078
3.58198
3.59121
3.5942
3.5925
3.58655
3.57956
3.57366
3.56916
3.56529
3.56031
3.55796
3.55923
3.5634
3.57021
3.57933
3.58772
3.58598
3.57751
3.56015
3.5322
3.50115
3.48352
3.47454
3.46493
3.45594
3.44916
3.44504
3.44302
3.44352
3.44633
3.45139
3.45507
3.45356
3.4504
3.44751
3.44382
3.44068
1.40001
1.40001
1.40001
1.40001
1.40001
1.40001
1.40001
1.40001
1.40001
1.40001
1.40001
1.40001
1.4
1.40001
1.39972
1.40755
1.49808
1.69488
2.04229
2.55312
2.9919
3.44641
3.58803
3.69354
3.71155
3.69313
3.66932
3.62381
3.55969
3.49003
3.48284
3.4999
3.50488
3.49712
3.49635
3.49943
3.50324
3.51287
3.51897
3.51549
3.515
3.52021
3.527
3.53416
3.54298
3.55228
3.55962
3.56393
3.56561
3.56714
3.56791
3.56731
3.56221
3.55325
3.55049
3.55046
3.54927
3.54679
3.54518
3.54178
3.53304
3.52052
3.50329
3.48544
3.47286
3.46594
3.4631
3.45898
3.44848
3.43568
3.42767
3.42313
3.42168
3.423
3.42963
3.43743
3.43934
3.43678
3.43292
3.43151
1.40001
1.40001
1.40001
1.40001
1.40001
1.40001
1.40001
1.40001
1.40001
1.40001
1.40001
1.40001
1.40001
1.40001
1.40001
1.40001
1.4
1.39985
1.40583
1.48774
1.66748
2.00956
2.50244
2.94064
3.38929
3.45467
3.52231
3.52522
3.50058
3.51112
3.52212
3.5381
3.54041
3.5296
3.52551
3.5215
3.5164
3.51216
3.50603
3.49691
3.49471
3.50246
3.50636
3.50839
3.5105
3.51501
3.52357
3.53724
3.55189
3.56119
3.5639
3.56415
3.56436
3.56271
3.5559
3.54637
3.53958
3.53422
3.52661
3.51316
3.49406
3.4747
3.46074
3.454
3.45386
3.45668
3.45651
3.45302
3.44856
3.43972
3.42401
3.40859
3.40301
3.40175
3.40255
3.40988
3.42063
3.42461
3.42299
3.42151
1.40001
1.40001
1.40001
1.40001
1.40001
1.40001
1.40001
1.40001
1.40001
1.40001
1.40001
1.40001
1.40001
1.40001
1.40001
1.40001
1.40001
1.40001
1.4
1.40003
1.4
1.40652
1.48335
1.65348
2.01079
2.4951
2.92952
3.38346
3.48989
3.56565
3.60026
3.5867
3.57705
3.55677
3.52979
3.50735
3.5051
3.5116
3.51635
3.51998
3.51817
3.50498
3.49527
3.49168
3.49285
3.49874
3.50652
3.51343
3.52473
3.53767
3.54919
3.5571
3.56151
3.56216
3.56187
3.56158
3.55521
3.54066
3.52204
3.50359
3.47963
3.44881
3.43062
3.42522
3.42556
3.43422
3.44446
3.44744
3.44479
3.43511
3.41778
3.40263
3.3948
3.39114
3.38939
3.38963
3.39778
3.41334
3.42242
3.42383
1.40001
1.40001
1.40001
1.40001
1.40001
1.40001
1.40001
1.40001
1.40001
1.40001
1.40001
1.40001
1.40001
1.40001
1.40001
1.40001
1.40001
1.40001
1.4
1.40001
1.4
1.39999
1.40005
1.40018
1.40857
1.49249
1.65058
2.0213
2.52718
2.99993
3.35335
3.39578
3.47297
3.46217
3.45495
3.48722
3.52134
3.53059
3.54209
3.54913
3.54738
3.54161
3.5376
3.53019
3.51707
3.50942
3.50788
3.51033
3.51459
3.51566
3.51714
3.52369
3.53377
3.54478
3.55519
3.56108
3.56134
3.55756
3.5483
3.53105
3.50171
3.45613
3.42164
3.41097
3.40629
3.40662
3.41437
3.42528
3.43073
3.42771
3.42111
3.4152
3.40025
3.38506
3.38199
3.38009
3.38212
3.39716
3.41562
3.42403
1.40001
1.40001
1.40001
1.40001
1.40001
1.40001
1.40001
1.40001
1.40001
1.40001
1.40001
1.40001
1.40001
1.40001
1.40001
1.40001
1.40001
1.40001
1.40001
1.40001
1.40001
1.4
1.4
1.4
1.40001
1.4
1.40034
1.41204
1.50543
1.69364
2.09793
2.56333
3.07647
3.36676
3.44824
3.53443
3.53628
3.53663
3.53459
3.54617
3.56322
3.56369
3.55842
3.55042
3.55227
3.55516
3.55819
3.55555
3.54238
3.52384
3.513
3.51136
3.51309
3.5167
3.5242
3.53844
3.55429
3.56219
3.5592
3.5492
3.53121
3.49937
3.45467
3.41718
3.40459
3.40103
3.3982
3.39773
3.40252
3.41295
3.41864
3.41632
3.41231
3.40027
3.38201
3.37696
3.37659
3.38371
3.40227
3.422
1.40001
1.40001
1.40001
1.40001
1.40001
1.40001
1.40001
1.40001
1.40001
1.40001
1.40001
1.40001
1.40001
1.40001
1.40001
1.40001
1.40001
1.40001
1.40001
1.40001
1.40001
1.40001
1.40001
1.40001
1.40001
1.4
1.4
1.40001
1.40003
1.40096
1.42309
1.52576
1.73641
2.19795
2.6874
3.19983
3.35532
3.41219
3.46622
3.47843
3.49056
3.50332
3.52759
3.55594
3.57175
3.57934
3.58408
3.5895
3.59076
3.57846
3.55233
3.53264
3.52337
3.52184
3.52423
3.52654
3.52663
3.53204
3.54303
3.54703
3.53803
3.51863
3.49539
3.46527
3.42994
3.40175
3.39053
3.38659
3.38431
3.38587
3.39674
3.41323
3.41938
3.41619
3.40333
3.38831
3.38347
3.38202
3.39047
3.41535
1.40001
1.40001
1.40001
1.40001
1.40001
1.40001
1.40001
1.40001
1.40001
1.40001
1.40001
1.40001
1.40001
1.40001
1.40001
1.40001
1.40001
1.40001
1.40001
1.40001
1.40001
1.40001
1.40001
1.40001
1.40001
1.40001
1.4
1.4
1.4
1.4
1.40001
1.40014
1.40208
1.44317
1.5727
1.8648
2.33897
2.82332
3.31539
3.44164
3.45551
3.47134
3.46596
3.48431
3.51833
3.56528
3.58901
3.60098
3.60177
3.5908
3.5848
3.58558
3.58198
3.57042
3.55543
3.54059
3.53116
3.52184
3.51434
3.51182
3.51506
3.51193
3.49823
3.48197
3.46631
3.44427
3.41536
3.39279
3.38567
3.38367
3.38441
3.39571
3.4158
3.4237
3.42031
3.40831
3.3961
3.39194
3.39082
3.40678
1.40001
1.40001
1.40001
1.40001
1.40001
1.40001
1.40001
1.40001
1.40001
1.40001
1.40001
1.40001
1.40001
1.40001
1.40001
1.40001
1.40001
1.40001
1.40001
1.40001
1.40001
1.40001
1.40001
1.40001
1.40001
1.40001
1.40001
1.40001
1.40001
1.4
1.4
1.4
1.40001
1.4
1.40044
1.40699
1.47867
1.63863
2.03416
2.53211
3.07538
3.40337
3.42806
3.4663
3.49887
3.49411
3.50716
3.52406
3.54856
3.57301
3.59191
3.60031
3.60791
3.61791
3.61968
3.60736
3.57752
3.54152
3.51393
3.49513
3.48006
3.47343
3.47406
3.47831
3.47685
3.47095
3.4608
3.43736
3.40673
3.38904
3.38661
3.38743
3.39798
3.42108
3.43078
3.42689
3.41535
3.40677
3.40341
3.40815
1.40001
1.40001
1.40001
1.40001
1.40001
1.40001
1.40001
1.40001
1.40001
1.40001
1.40001
1.40001
1.40001
1.40001
1.40001
1.40001
1.40001
1.40001
1.40001
1.40001
1.40001
1.40001
1.40001
1.40001
1.40001
1.40001
1.40001
1.40001
1.40001
1.40001
1.40001
1.40001
1.40001
1.4
1.4
1.4
1.4001
1.4013
1.42256
1.53693
1.8046
2.28928
2.76778
3.26228
3.49472
3.49331
3.52291
3.49697
3.48794
3.50397
3.5278
3.55481
3.58959
3.6221
3.63615
3.63892
3.63565
3.61382
3.56918
3.51777
3.48257
3.46054
3.44836
3.44572
3.45433
3.47219
3.47461
3.46953
3.45406
3.42292
3.39686
3.39129
3.39346
3.40744
3.43324
3.44334
3.43793
3.42705
3.42074
3.42056
1.40001
1.40001
1.40001
1.40001
1.40001
1.40001
1.40001
1.40001
1.40001
1.40001
1.40001
1.40001
1.40001
1.40001
1.40001
1.40001
1.40001
1.40001
1.40001
1.40001
1.40001
1.40001
1.40001
1.40001
1.40001
1.40001
1.40001
1.40001
1.40001
1.40001
1.40001
1.40001
1.40001
1.40001
1.4
1.4
1.4
1.40001
1.39999
1.40046
1.40613
1.47232
1.64545
2.03739
2.57793
3.10304
3.43182
3.50718
3.52826
3.53123
3.51198
3.50302
3.51262
3.542
3.59106
3.63573
3.64758
3.64479
3.63223
3.59874
3.53878
3.47573
3.44404
3.43478
3.43088
3.4361
3.46053
3.47523
3.47201
3.46076
3.43418
3.40759
3.40097
3.40393
3.42134
3.44658
3.45454
3.44882
3.44036
3.43737
1.40001
1.40001
1.40001
1.40001
1.40001
1.40001
1.40001
1.40001
1.40001
1.40001
1.40001
1.40001
1.40001
1.40001
1.40001
1.40001
1.40001
1.40001
1.40001
1.40001
1.40001
1.40001
1.40001
1.40001
1.40001
1.40001
1.40001
1.40001
1.40001
1.40001
1.40001
1.40001
1.40001
1.40001
1.40001
1.40001
1.40001
1.40001
1.4
1.4
1.4
1.40014
1.40205
1.42681
1.56884
1.89225
2.41235
2.92206
3.36701
3.55437
3.55356
3.55312
3.52208
3.5073
3.5156
3.54567
3.59098
3.63042
3.63713
3.62488
3.59618
3.54697
3.48261
3.43988
3.42879
3.42511
3.42576
3.44664
3.4738
3.47784
3.46951
3.44629
3.42084
3.41447
3.41751
3.43846
3.46482
3.46943
3.46374
3.455
1.40001
1.40001
1.40001
1.40001
1.40001
1.40001
1.40001
1.40001
1.40001
1.40001
1.40001
1.40001
1.40001
1.40001
1.40001
1.40001
1.40001
1.40001
1.40001
1.40001
1.40001
1.40001
1.40001
1.40001
1.40001
1.40001
1.40001
1.40001
1.40001
1.40001
1.40001
1.40001
1.40001
1.40001
1.40001
1.40001
1.40001
1.40001
1.40001
1.40001
1.4
1.4
1.4
1.4
1.40106
1.41385
1.51811
1.76859
2.27477
2.83521
3.28068
3.5315
3.56767
3.58623
3.56068
3.52357
3.51526
3.52813
3.56663
3.60161
3.60175
3.58322
3.554
3.5094
3.45499
3.42586
3.4219
3.42258
3.44012
3.47081
3.4817
3.47664
3.45642
3.43387
3.42917
3.4359
3.46046
3.48097
3.48311
3.47481
1.40001
1.40001
1.40001
1.40001
1.40001
1.40001
1.40001
1.40001
1.40001
1.40001
1.40001
1.40001
1.40001
1.40001
1.40001
1.40001
1.40001
1.40001
1.40001
1.40001
1.40001
1.40001
1.40001
1.40001
1.40001
1.40001
1.40001
1.40001
1.40001
1.40001
1.40001
1.40001
1.40001
1.40001
1.40001
1.40001
1.40001
1.40001
1.40001
1.40001
1.40001
1.40001
1.4
1.4
1.40001
1.4
1.40056
1.40697
1.48254
1.72664
2.19188
2.76004
3.22595
3.53828
3.60967
3.61072
3.5492
3.50027
3.49138
3.49831
3.53273
3.56924
3.57235
3.55701
3.52808
3.48395
3.43676
3.41925
3.41981
3.43707
3.47477
3.48931
3.48468
3.46691
3.44919
3.44618
3.4536
3.47979
3.49451
3.49031
1.40001
1.40001
1.40001
1.40001
1.40001
1.40001
1.40001
1.40001
1.40001
1.40001
1.40001
1.40001
1.40001
1.40001
1.40001
1.40001
1.40001
1.40001
1.40001
1.40001
1.40001
1.40001
1.40001
1.40001
1.40001
1.40001
1.40001
1.40001
1.40001
1.40001
1.40001
1.40001
1.40001
1.40001
1.40001
1.40001
1.40001
1.40001
1.40001
1.40001
1.40001
1.40001
1.40001
1.40001
1.40001
1.4
1.4
1.4
1.40035
1.40558
1.46671
1.7052
2.15871
2.73986
3.25656
3.56031
3.60073
3.5962
3.52565
3.46224
3.45095
3.46351
3.51546
3.55302
3.55003
3.53663
3.4991
3.44346
3.41919
3.42098
3.44387
3.48569
3.49997
3.49535
3.47679
3.45892
3.4572
3.46822
3.49238
3.49666
1.40001
1.40001
1.40001
1.40001
1.40001
1.40001
1.40001
1.40001
1.40001
1.40001
1.40001
1.40001
1.40001
1.40001
1.40001
1.40001
1.40001
1.40001
1.40001
1.40001
1.40001
1.40001
1.40001
1.40001
1.40001
1.40001
1.40001
1.40001
1.40001
1.40001
1.40001
1.40001
1.40001
1.40001
1.40001
1.40001
1.40001
1.40001
1.40001
1.40001
1.40001
1.40001
1.40001
1.40001
1.40001
1.40001
1.4
1.4
1.4
1.4
1.40029
1.40521
1.46191
1.69198
2.17679
2.7942
3.30692
3.55707
3.58238
3.55612
3.46006
3.42462
3.42985
3.47116
3.52752
3.53405
3.52574
3.49584
3.4437
3.42444
3.4294
3.45865
3.50045
3.50877
3.5024
3.48197
3.4637
3.46412
3.47752
3.4942
1.40001
1.40001
1.40001
1.40001
1.40001
1.40001
1.40001
1.40001
1.40001
1.40001
1.40001
1.40001
1.40001
1.40001
1.40001
1.40001
1.40001
1.40001
1.40001
1.40001
1.40001
1.40001
1.40001
1.40001
1.40001
1.40001
1.40001
1.40001
1.40001
1.40001
1.40001
1.40001
1.40001
1.40001
1.40001
1.40001
1.40001
1.40001
1.40001
1.40001
1.40001
1.40001
1.40001
1.40001
1.40001
1.40001
1.40001
1.40001
1.4
1.4
1.4
1.4
1.40027
1.4053
1.47092
1.74167
2.26039
2.8706
3.38162
3.53103
3.53381
3.50463
3.42361
3.4
3.41754
3.49092
3.52647
3.52297
3.50033
3.45392
3.43437
3.43892
3.46963
3.50882
3.51682
3.51027
3.48528
3.46273
3.46199
3.47373
1.40001
1.40001
1.40001
1.40001
1.40001
1.40001
1.40001
1.40001
1.40001
1.40001
1.40001
1.40001
1.40001
1.40001
1.40001
1.40001
1.40001
1.40001
1.40001
1.40001
1.40001
1.40001
1.40001
1.40001
1.40001
1.40001
1.40001
1.40001
1.40001
1.40001
1.40001
1.40001
1.40001
1.40001
1.40001
1.40001
1.40001
1.40001
1.40001
1.40001
1.40001
1.40001
1.40001
1.40001
1.40001
1.40001
1.40001
1.40001
1.40001
1.40001
1.4
1.4
1.4
1.4
1.40042
1.40835
1.4977
1.80657
2.38541
2.97685
3.4195
3.50493
3.49796
3.42318
3.38422
3.40713
3.4824
3.52957
3.52769
3.5085
3.46079
3.43724
3.44241
3.4768
3.51139
3.51241
3.50518
3.4768
3.45363
3.45713
1.40001
1.40001
1.40001
1.40001
1.40001
1.40001
1.40001
1.40001
1.40001
1.40001
1.40001
1.40001
1.40001
1.40001
1.40001
1.40001
1.40001
1.40001
1.40001
1.40001
1.40001
1.40001
1.40001
1.40001
1.40001
1.40001
1.40001
1.40001
1.40001
1.40001
1.40001
1.40001
1.40001
1.40001
1.40001
1.40001
1.40001
1.40001
1.40001
1.40001
1.40001
1.40001
1.40001
1.40001
1.40001
1.40001
1.40001
1.40001
1.40001
1.40001
1.40001
1.40001
1.4
1.4
1.4
1.4
1.40082
1.41411
1.54834
1.95333
2.53985
3.08761
3.43581
3.46412
3.4199
3.37219
3.39392
3.48276
3.53436
3.53913
3.5216
3.46771
3.43503
3.43839
3.46968
3.50568
3.50688
3.49975
3.4703
3.45291
1.40001
1.40001
1.40001
1.40001
1.40001
1.40001
1.40001
1.40001
1.40001
1.40001
1.40001
1.40001
1.40001
1.40001
1.40001
1.40001
1.40001
1.40001
1.40001
1.40001
1.40001
1.40001
1.40001
1.40001
1.40001
1.40001
1.40001
1.40001
1.40001
1.40001
1.40001
1.40001
1.40001
1.40001
1.40001
1.40001
1.40001
1.40001
1.40001
1.40001
1.40001
1.40001
1.40001
1.40001
1.40001
1.40001
1.40001
1.40001
1.40001
1.40001
1.40001
1.40001
1.40001
1.40001
1.4
1.4
1.4
1.40002
1.402
1.43408
1.62668
2.05501
2.6454
3.20473
3.40699
3.37401
3.34024
3.37018
3.48303
3.53171
3.53378
3.52246
3.46914
3.42815
3.42866
3.45575
3.49658
3.5014
3.49671
3.4686
1.40001
1.40001
1.40001
1.40001
1.40001
1.40001
1.40001
1.40001
1.40001
1.40001
1.40001
1.40001
1.40001
1.40001
1.40001
1.40001
1.40001
1.40001
1.40001
1.40001
1.40001
1.40001
1.40001
1.40001
1.40001
1.40001
1.40001
1.40001
1.40001
1.40001
1.40001
1.40001
1.40001
1.40001
1.40001
1.40001
1.40001
1.40001
1.40001
1.40001
1.40001
1.40001
1.40001
1.40001
1.40001
1.40001
1.40001
1.40001
1.40001
1.40001
1.40001
1.40001
1.40001
1.40001
1.40001
1.40001
1.4
1.4
1.4
1.40015
1.4044
1.4548
1.67737
2.15611
2.74641
3.23725
3.3361
3.32874
3.3562
3.45219
3.52349
3.52641
3.52146
3.47086
3.41819
3.41814
3.44271
3.48905
3.4974
3.48872
1.40001
1.40001
1.40001
1.40001
1.40001
1.40001
1.40001
1.40001
1.40001
1.40001
1.40001
1.40001
1.40001
1.40001
1.40001
1.40001
1.40001
1.40001
1.40001
1.40001
1.40001
1.40001
1.40001
1.40001
1.40001
1.40001
1.40001
1.40001
1.40001
1.40001
1.40001
1.40001
1.40001
1.40001
1.40001
1.40001
1.40001
1.40001
1.40001
1.40001
1.40001
1.40001
1.40001
1.40001
1.40001
1.40001
1.40001
1.40001
1.40001
1.40001
1.40001
1.40001
1.40001
1.40001
1.40001
1.40001
1.40001
1.4
1.4
1.4
1.4
1.40035
1.40731
1.48046
1.72466
2.23268
2.83992
3.24682
3.28781
3.32474
3.40703
3.5063
3.51593
3.51548
3.47001
3.40888
3.40567
3.42779
3.47934
3.49461
1.40001
1.40001
1.40001
1.40001
1.40001
1.40001
1.40001
1.40001
1.40001
1.40001
1.40001
1.40001
1.40001
1.40001
1.40001
1.40001
1.40001
1.40001
1.40001
1.40001
1.40001
1.40001
1.40001
1.40001
1.40001
1.40001
1.40001
1.40001
1.40001
1.40001
1.40001
1.40001
1.40001
1.40001
1.40001
1.40001
1.40001
1.40001
1.40001
1.40001
1.40001
1.40001
1.40001
1.40001
1.40001
1.40001
1.40001
1.40001
1.40001
1.40001
1.40001
1.40001
1.40001
1.40001
1.40001
1.40001
1.40001
1.40001
1.40001
1.4
1.4
1.4
1.40001
1.40071
1.41155
1.5011
1.78759
2.31592
2.9324
3.18144
3.26514
3.35984
3.48333
3.5041
3.50519
3.4669
3.40839
3.40389
3.42805
3.47931
1.40001
1.40001
1.40001
1.40001
1.40001
1.40001
1.40001
1.40001
1.40001
1.40001
1.40001
1.40001