/*--------------------------------*- C++ -*----------------------------------*\
| =========                 |                                                 |
| \\      /  F ield         | OpenFOAM: The Open Source CFD Toolbox           |
|  \\    /   O peration     | Version:  2206                                  |
|   \\  /    A nd           | Website:  www.openfoam.com                      |
|    \\/     M anipulation  |                                                 |
\*---------------------------------------------------------------------------*/
FoamFile
{
    version     2.0;
    format      ascii;
    arch        "LSB;label=32;scalar=64";
    class       volScalarField;
    location    "0.08";
    object      T;
}
// * * * * * * * * * * * * * * * * * * * * * * * * * * * * * * * * * * * * * //

dimensions      [0 0 0 1 0 0 0];

internalField   nonuniform List<scalar> 
4800
(
1
1
1
1
1
1
1
1
1
1
1
1
1
1
1
1
1
1
1
1
1
1
1
1
1
1
1
1
1
1
1
1
1
1
1
1
1
1
1
1
1
1
1
1
1
1
1
1
1
1
1
1
1
1
1
1
1
1
1
1
1
1
1
1
1
1
1
1
1
1
1
1
1
1
1
1
1
1
1
1
1
1
1
1
1
1
1
1
1
1
1
1
1
1
1
1
1
1
1
1
1
1
1
1
1
1
1
1
1
1
1
1
1
1
1
1
1
1
1
1
1
1
1
1
1
1
1
1
1
1
1
1
1
1
1
1
1
1
1
1
1
1
1
1
1
1
1
1
1
1
1
1
1
1
1
1
1
1
1
1
1
1
1
1
1
1
1
1
1
1
1
1
1
1
1
1
1
1
1
1
1
1
1
1
1
1
1
1
1
1
1
1
1
1
1
1
1
1
1
1
1
1
1
1
1
1
1
1
1
1
1
1
1
1
1
1
1
1
1
1
1
1
1
1
1
1
1
1
1
1
1
1
1
1
1
1
1
1
1
1
1
1
1
1
1
1
1
1
1
1
1
1
1
1
1
1
1
1
1
1
1
1
1
1
1
1
1
1
1
1
1
1
1
1
1
1
1
1
1
1
1
1
1
1
1
1
1
1
1
1
1
1
1
1
1
1
1
1
1
1
1
1
1
1
1
1
1
1
1
1
1
1
1
1
1
1
1
1
1
1
1
1
1
1
1
1
1
1
1
1
1
1
1
1
1
1
1
1
1
1
1
1
1
1
1
1
1
1
1
1
1
1
1
1
1
1
1
1
1
1
1
1
1
1
1
1
1
1
1
1
1
1
1
1
1
1
1
1
1
1
1
1
1
1
1
1
1
1
1
1
1
1
1
1
1
1
1
1
1
1
1
1
1
1
1
1
1
1
1
1
1
1
1
1
1
1
1
1
1
1
1
1
1
1
1
1
1
1
1
1
1
1
1
1
1
1
1
1
1
1
1
1
1
1
1
1
1
1
1
1
1
1
1
1
1
1
1
1
1
1
1
1
1
1
1
1
1
1
1
1
1
1
1
1
1
1
1
1
1
1
1
1
1
1
1
1
1
1
1
1
1
1
1
1
1
1
1
1
1
1
1
1
1
1
1
1
1
1
1
1
1
1
1
1
1
1
1
1
1
1
1
1
1
1
1
1
1
1
1
1
1
1
1
1
1
1
1
1
1
1
1
1
1
1
1
1
1
1
1
1
1
1
1
1
1
1
1
1
1
1
1
1
1
1
1
1
1
1
1
1
1
1
1
1
1
1
1
1
1
1
1
1
1
1
1
1
1
1
1
1
1
1
1
1
1
1
1
1
1
1
1
1
1
1
1
1
1
1
1
1
1
1
1
1
1
1
1
1
1
1
1
1
1
1
1
1
1
1
1
1
1
1
1
1
1
1
1
1
1
1
1
1
1
1
1
1
1
1
1
1
1
1
1
1
1
1
1
1
1
1
1
1
1
1
1
1
1
1
1
1
1
1
1
1
1
1
1
1
1
1
1
1
1
1
1
1
1
1
1
1
1
1
1
1
1
1
1
1
1
1
1
1
1
1
1
1
1
1
1
1
1
1
1
1
1
1
1
1
1
1
1
1
1
1
1
1
1
1
1
1
1
1
1
1
1
1
1
1
1
1
1
1
1
1
1
1
1
1
1
1
1
1
1
1
1
1
1
1
1
1
1
1
1
1
1
1
1
1
1
1
1
1
1
1
1
1
1
1
1
1
1
1
1
1
1
1
1
1
1
1
1
1
1
1
1
1
1
1
1
1
1
1
1
1
1
1
1
1
1
1
1
1
1
1
1
1
1
1
1
1
1
1
1
1
1
1
1
1
1
1
1
1
1
1
1
1
1
1
1
1
1
1
1
1
1
1
1
1
1
1
1
1
1
1
1
1
1
1
1
1
1
1
1
1
1
1
1
1
1
1
1
1
1
1
1
1
1
1
1
1
1
1
1
1
1
1
1
1
1
1
1
1
1
1
1
1
1
1
1
1
1
1
1
1
1
1
1
1
1
1
1
1
1
1
1
1
1
1
1
1
1
1
1
1
1
1
1
1
1
1
1
1
1
1
1
1
1
1
1
1
1
1
1
1
1
1
1
1
1
1
1
1
1
1
1
1
1
1
1
1
1
1
1
1
1
1
1
1
1
1
1
1
1
1
1
1
1
1
1
1
1
1
1
1
1
1
1
1
1
1
1
1
1
1
1
1
1
1
1
1
1
1
1
1
1
1
1
1
1
1
1
1
1
1
1
1
1
1
1
1
1
1
1
1
1
1
1
1
1
1
1
1
1
1
1
1
1
1
1
1
1
1
1
1
1
1
1
1
1
1
1
1
1
1
1
1
1
1
1
1
1
1
1
1
1
1
1
1
1
1
1
1
1
1
1
1
1
1
1
1
1
1
1
1
1
1
1
1
1
1
1
1
1
1
1
1
1
1
1
1
1
1
1
1
1
1
1
1
1
1
1
1
1
1
1
1
1
1
1
1
1
1
1
1
1
1
1
1
1
1
1
1
1
1
1
1
1
1
1
1
1
1
1
1
1
1
1
1
1
1
1
1
1
1
1
1
1
1
1
1
1
1
1
1
1
1
1
1
1
1
1
1
1
1
1
1
1
1
1
1
1
1
1
1
1
1
1
1
1
1
1
1
1
1
1
1
1
1
1
1
1
1
1
1
1
1
1
1
1
1
1
1
1
1
1
1
1
1
1
1
1
1
1
1
1
1
1
1
1
1
1
1
1
1
1
1
1
1
1
1
1
1
1
1
1
1
1
1
1
1
1
1
1
1
1
1
1
1
1
1
1
1
1
1
1
1
1
1
1
1
1
1
1
1
1
1
1
1
1
1
1
1
1
1
1
1
1
1
1
1
1
1
1
1
1
1
1
1
1
1
1
1
1
1
1
1
1
1
1
1
1
1
1
1
1
1
1
1
1
1
1
1
1
1
1
1
1
1
1
1
1
1
1
1
1
1
1
1
1
1
1
1
1
1
1
1
1
1
1
1
1
1
1
1
1
1
1
1
1
1
1
1
1
1
1
1
1
1
1
1
1
1
1
1
1
1
1
1
1
1
1
1
1
1
1
1
1
1
1
1
1
1
1
1
1
1
1
1
1
1
1
1
1
1
1
1
1
1
1
1
1
1
1
1
1
1
1
1
1
1
1
1
1
1
1
1
1
1
1
1
1
1
1
1
1
1
1
1
1
1
1
1
1
1
1
1
1
1
1
1
1
1
1
1
1
1
1
1
1
1
1
1
1
1
1
1
1
1
1
1
1
1
1
1
1
1
1
1
1
1
1
1
1
1
1
1
1
1
1
1
1
1
1
1
1
1
1
1
1
1
1
1
1
1
1
1
1
1
1
1
1
1
1
1
1
1
1
1
1
1
1
1
1
1
1
1
1
1
1
1
1
1
1
1
1
1
1
1
1
1
1
1
1
1
1
1
1
1
1
1
1
1
1
1
1
1
1
1
1
1
1
1
1
1
1
1
1
1
1
1
1
1
1
1
1
1
1
1
1
1
1
1
1
1
1
1
1
1
1
1
1
1
1
1
1
1
1
1
1
1
1.07179
1.16572
1.2592
1.35903
1.45016
1.51522
1.58523
1.67647
1.71632
1.73835
1.7728
1.78038
1.77141
1.75096
1.72225
1.68769
1.64649
1.60759
1.5907
1.58924
1.58503
1.58014
1.58067
1.5869
1.59736
1.60863
1.61081
1.61005
1.60909
1.61001
1.61262
1.61459
1.61542
1.61659
1.61987
1.62316
1.62445
1.62468
1.62419
1.62253
1.62081
1.61904
1.61804
1.61822
1.61868
1.619
1.6195
1.62094
1.62348
1.62558
1.62667
1.62714
1.62713
1.62667
1.62589
1.62487
1.62354
1.62273
1.62208
1.62105
1.61881
1.61487
1.6102
1.60555
1.60362
1.60335
1.60354
1.60477
1.60609
1.60616
1.60551
1.6034
1.60042
1.59859
1.59802
1.59794
1.5982
1.59854
1.59921
1.59926
0.999891
1.00102
1.00762
1.01866
1.05824
1.13007
1.17976
1.24916
1.34
1.39329
1.45433
1.49618
1.5357
1.56793
1.58607
1.62488
1.6411
1.64375
1.64135
1.64287
1.6423
1.63448
1.62167
1.618
1.61584
1.61297
1.6105
1.61049
1.61161
1.61348
1.61701
1.61965
1.62024
1.62023
1.6208
1.62186
1.62305
1.6239
1.62432
1.62439
1.62459
1.6251
1.62601
1.62617
1.62584
1.62464
1.6235
1.62338
1.62392
1.62484
1.62517
1.62534
1.62577
1.62643
1.62699
1.62741
1.62789
1.62783
1.62725
1.62565
1.62268
1.61857
1.61341
1.60702
1.60393
1.60323
1.60285
1.60286
1.60386
1.6049
1.60475
1.60331
1.60114
1.60089
1.60082
1.6005
1.60024
1.60011
1.59992
1.59921
1
1
1
1
1
1
0.999791
1.00139
1.01385
1.04242
1.10146
1.20543
1.31011
1.43981
1.57354
1.66062
1.68567
1.70034
1.70392
1.70093
1.69518
1.68279
1.66591
1.63823
1.62876
1.62542
1.62394
1.62454
1.62651
1.63086
1.63289
1.63323
1.6333
1.63301
1.6318
1.63047
1.63035
1.63003
1.62993
1.63129
1.63393
1.63649
1.63775
1.63776
1.63704
1.63506
1.63332
1.6325
1.63204
1.63189
1.63142
1.63013
1.62909
1.62909
1.62997
1.63192
1.63408
1.63507
1.63452
1.63248
1.6292
1.6252
1.62002
1.61406
1.60982
1.60767
1.60657
1.60573
1.60507
1.60495
1.60539
1.60531
1.60481
1.60481
1.6049
1.60487
1.6046
1.60384
1.60313
1.60133
1
1
1
1
1
1
1
1
1
1
0.999857
1.00046
1.00594
1.04848
1.16806
1.33003
1.48659
1.56878
1.65429
1.67239
1.67829
1.67565
1.66454
1.66553
1.66762
1.66813
1.66589
1.65982
1.65757
1.65317
1.64935
1.6474
1.64512
1.64357
1.64229
1.6423
1.64281
1.64258
1.64225
1.64255
1.64433
1.64664
1.64801
1.64885
1.64932
1.64895
1.64761
1.64641
1.64523
1.64371
1.64199
1.64009
1.63826
1.63752
1.63762
1.63816
1.6392
1.64051
1.64145
1.64065
1.63825
1.63441
1.62889
1.62268
1.61866
1.6164
1.61415
1.61198
1.61025
1.60911
1.60839
1.60833
1.60888
1.61026
1.61138
1.61132
1.61083
1.60991
1.60855
1.60519
1
1
1
1
1
1
1
1
1
1
1
1
1
1
0.999861
1.00403
1.05373
1.15152
1.29157
1.44989
1.56015
1.66216
1.68487
1.69886
1.70248
1.69957
1.69568
1.68767
1.67488
1.65841
1.65308
1.65661
1.65892
1.6583
1.65596
1.65406
1.65342
1.65383
1.65429
1.65412
1.65447
1.65482
1.65436
1.65393
1.65424
1.6556
1.65704
1.65774
1.65769
1.65711
1.65595
1.65426
1.65199
1.64979
1.6489
1.64866
1.64817
1.6471
1.64611
1.64485
1.64251
1.63953
1.63584
1.63198
1.62878
1.62643
1.62491
1.62333
1.62076
1.61793
1.61613
1.61526
1.61501
1.6153
1.61671
1.61823
1.6184
1.61724
1.61532
1.61107
1
1
1
1
1
1
1
1
1
1
1
1
1
1
1
1
1
0.99992
1.00281
1.04511
1.1354
1.28001
1.43574
1.54514
1.64259
1.65431
1.66392
1.66416
1.65972
1.6612
1.66381
1.66926
1.6714
1.66977
1.66779
1.66477
1.66192
1.66019
1.65934
1.6583
1.65777
1.65872
1.65843
1.65764
1.65718
1.65763
1.65936
1.66189
1.6641
1.66508
1.66504
1.66421
1.66323
1.66214
1.6604
1.65823
1.65634
1.65459
1.6526
1.64961
1.64539
1.6409
1.6375
1.63607
1.63563
1.63572
1.63509
1.63359
1.63177
1.62931
1.62602
1.62305
1.62192
1.62148
1.62141
1.62225
1.62349
1.6234
1.6216
1.61641
1
1
1
1
1
1
1
1
1
1
1
1
1
1
1
1
1
1
0.999996
1.00001
0.999986
1.00304
1.04157
1.12503
1.26921
1.41947
1.52874
1.62354
1.64761
1.66441
1.67665
1.67535
1.67323
1.66848
1.66324
1.6594
1.65852
1.65997
1.66173
1.66295
1.66232
1.65914
1.65737
1.65662
1.65657
1.65728
1.65866
1.65984
1.66172
1.664
1.66601
1.667
1.66731
1.66713
1.6668
1.66647
1.6649
1.66174
1.65762
1.65333
1.64802
1.64147
1.63782
1.63675
1.63672
1.63821
1.63977
1.63996
1.63905
1.63685
1.63314
1.62969
1.62766
1.62652
1.62546
1.62475
1.62508
1.62612
1.62615
1.62239
1
1
1
1
1
1
1
1
1
1
1
1
1
1
1
1
1
1
1
1
1
0.999995
1.00002
1.00006
1.00381
1.04501
1.1203
1.26395
1.41873
1.53851
1.61562
1.62602
1.6377
1.63671
1.63843
1.64891
1.65856
1.66156
1.66351
1.66373
1.66209
1.66004
1.66047
1.66048
1.65875
1.65713
1.65668
1.65695
1.65773
1.65842
1.65923
1.66085
1.66262
1.66424
1.66579
1.66685
1.66695
1.66619
1.66402
1.66029
1.65423
1.64497
1.63843
1.63663
1.63589
1.63591
1.63719
1.63924
1.64031
1.63965
1.63817
1.63657
1.63287
1.62888
1.6272
1.62577
1.62515
1.62586
1.62702
1.62494
1
1
1
1
1
1
1
1
1
1
1
1
1
1
1
1
1
1
1
1
1
1
1
1
1
0.999999
1.00013
1.00518
1.05015
1.13709
1.28568
1.42363
1.53985
1.60053
1.62085
1.64056
1.65104
1.65531
1.65358
1.65347
1.65543
1.65597
1.65685
1.65747
1.65882
1.65975
1.65989
1.6586
1.65601
1.65391
1.65342
1.65405
1.65514
1.65586
1.65711
1.65978
1.66286
1.66418
1.66371
1.66218
1.65872
1.65219
1.64351
1.637
1.63526
1.63514
1.63522
1.63565
1.63656
1.63789
1.63853
1.63778
1.63653
1.63337
1.62857
1.62603
1.62482
1.62475
1.62545
1.62452
1
1
1
1
1
1
1
1
1
1
1
1
1
1
1
1
1
1
1
1
1
1
1
1
1
1
1
1
1
1.0004
1.00988
1.05897
1.15146
1.31184
1.44752
1.56053
1.5995
1.61172
1.62015
1.6231
1.62956
1.63685
1.64546
1.65272
1.65501
1.65532
1.65501
1.65567
1.65738
1.65723
1.65431
1.65117
1.64963
1.64934
1.64995
1.65114
1.65237
1.65479
1.65735
1.65791
1.65581
1.65186
1.64785
1.64314
1.63766
1.63311
1.63165
1.63152
1.63162
1.63221
1.63397
1.63614
1.63669
1.63564
1.63207
1.62754
1.62472
1.62263
1.62255
1.62217
1
1
1
1
1
1
1
1
1
1
1
1
1
1
1
1
1
1
1
1
1
1
1
1
1
1
1
1
1
0.999999
1
1.00004
1.00085
1.01871
1.07944
1.19654
1.34828
1.4774
1.57639
1.60283
1.60834
1.6167
1.62196
1.63043
1.63668
1.64316
1.64657
1.64958
1.65163
1.65189
1.65247
1.65338
1.65275
1.65027
1.64769
1.64613
1.64603
1.64576
1.64523
1.6454
1.64652
1.64593
1.64322
1.64111
1.63989
1.63732
1.63266
1.62877
1.62811
1.62837
1.62907
1.63098
1.63344
1.63368
1.63201
1.62816
1.6239
1.62075
1.61851
1.61743
1
1
1
1
1
1
1
1
1
1
1
1
1
1
1
1
1
1
1
1
1
1
1
1
1
1
1
1
1
1
1
1
1
0.999997
1.00016
1.00283
1.03485
1.10792
1.25408
1.39629
1.52936
1.59496
1.60297
1.61068
1.61614
1.61666
1.62233
1.62918
1.63648
1.64247
1.64597
1.64724
1.64825
1.65023
1.65181
1.65119
1.64778
1.64194
1.63725
1.63421
1.63197
1.63162
1.63261
1.63505
1.63602
1.63633
1.63596
1.63284
1.62753
1.62453
1.62436
1.62462
1.62577
1.62843
1.62877
1.62648
1.62187
1.61765
1.61456
1.61159
1
1
1
1
1
1
1
1
1
1
1
1
1
1
1
1
1
1
1
1
1
1
1
1
1
1
1
1
1
1
1
1
1
1
1
0.999997
1.00003
1.00051
1.00923
1.06121
1.17424
1.33047
1.45667
1.56288
1.60619
1.60817
1.61743
1.61587
1.61695
1.62187
1.6264
1.63147
1.63809
1.64421
1.64766
1.6497
1.65012
1.64808
1.64075
1.63036
1.62408
1.62161
1.62135
1.62234
1.6265
1.63135
1.63221
1.63201
1.6304
1.62495
1.61973
1.61823
1.61822
1.61928
1.62168
1.62177
1.61853
1.61352
1.60968
1.60591
1
1
1
1
1
1
1
1
1
1
1
1
1
1
1
1
1
1
1
1
1
1
1
1
1
1
1
1
1
1
1
1
1
1
1
1
1
1
0.999993
1.00016
1.00249
1.03104
1.10826
1.25131
1.40275
1.53524
1.6012
1.61242
1.61549
1.61623
1.61389
1.61396
1.61814
1.62509
1.63493
1.64358
1.64598
1.64576
1.64421
1.63907
1.62903
1.61786
1.61425
1.61432
1.61509
1.61806
1.62413
1.62714
1.62648
1.62449
1.61951
1.61337
1.61047
1.61
1.61086
1.61256
1.61216
1.60847
1.60411
1.60012
1
1
1
1
1
1
1
1
1
1
1
1
1
1
1
1
1
1
1
1
1
1
1
1
1
1
1
1
1
1
1
1
1
1
1
1
1
1
1
1
0.999996
1.00004
1.00079
1.01091
1.0745
1.20364
1.36299
1.48967
1.58502
1.61839
1.61857
1.62036
1.61587
1.61403
1.61641
1.62255
1.63134
1.63885
1.63991
1.63784
1.63377
1.62679
1.6166
1.60977
1.60922
1.60953
1.61074
1.61548
1.62013
1.62048
1.61793
1.6121
1.60508
1.60143
1.60051
1.60152
1.60339
1.60267
1.59916
1.59478
1
1
1
1
1
1
1
1
1
1
1
1
1
1
1
1
1
1
1
1
1
1
1
1
1
1
1
1
1
1
1
1
1
1
1
1
1
1
1
1
1
1
1
0.999996
1.0004
1.00556
1.05141
1.15499
1.32319
1.46636
1.57297
1.62149
1.62311
1.62529
1.62036
1.614
1.61348
1.61695
1.62486
1.63155
1.63155
1.62903
1.62537
1.61947
1.60996
1.60424
1.60388
1.60423
1.6075
1.61212
1.6126
1.60976
1.60319
1.59615
1.59274
1.59236
1.594
1.59531
1.59448
1.59102
1
1
1
1
1
1
1
1
1
1
1
1
1
1
1
1
1
1
1
1
1
1
1
1
1
1
1
1
1
1
1
1
1
1
1
1
1
1
1
1
1
1
1
1
1
0.999995
1.0002
1.00272
1.03492
1.13903
1.29863
1.4504
1.56146
1.62214
1.62899
1.62869
1.6173
1.60981
1.60935
1.61169
1.61882
1.62563
1.62631
1.62426
1.61958
1.6117
1.60141
1.59704
1.59685
1.59873
1.60369
1.60437
1.60155
1.59518
1.5889
1.58602
1.58597
1.58853
1.5899
1.58851
1
1
1
1
1
1
1
1
1
1
1
1
1
1
1
1
1
1
1
1
1
1
1
1
1
1
1
1
1
1
1
1
1
1
1
1
1
1
1
1
1
1
1
1
1
1
1
0.999996
1.00011
1.00218
1.02754
1.13001
1.28646
1.44443
1.57074
1.62662
1.62791
1.62648
1.614
1.60464
1.60359
1.6063
1.61596
1.62162
1.62045
1.61703
1.60887
1.59631
1.58959
1.58909
1.59129
1.59691
1.59765
1.59477
1.58839
1.5829
1.58128
1.58219
1.58569
1.58636
1
1
1
1
1
1
1
1
1
1
1
1
1
1
1
1
1
1
1
1
1
1
1
1
1
1
1
1
1
1
1
1
1
1
1
1
1
1
1
1
1
1
1
1
1
1
1
1
1
0.999997
1.00009
1.00203
1.02532
1.1234
1.29418
1.46213
1.58192
1.62495
1.62602
1.62112
1.60412
1.59846
1.59937
1.60631
1.61449
1.61398
1.60946
1.6015
1.58949
1.5836
1.58353
1.58675
1.59236
1.59247
1.58928
1.5837
1.57903
1.57862
1.58042
1.58417
1
1
1
1
1
1
1
1
1
1
1
1
1
1
1
1
1
1
1
1
1
1
1
1
1
1
1
1
1
1
1
1
1
1
1
1
1
1
1
1
1
1
1
1
1
1
1
1
1
1
1
0.999997
1.00008
1.00203
1.02918
1.14275
1.31943
1.47883
1.5991
1.6196
1.61846
1.61129
1.59509
1.59041
1.59258
1.60318
1.60634
1.60347
1.59623
1.58578
1.58005
1.57991
1.58369
1.58915
1.58936
1.58682
1.58123
1.57669
1.57645
1.57915
1
1
1
1
1
1
1
1
1
1
1
1
1
1
1
1
1
1
1
1
1
1
1
1
1
1
1
1
1
1
1
1
1
1
1
1
1
1
1
1
1
1
1
1
1
1
1
1
1
1
1
1
1
0.999998
1.00014
1.00319
1.04068
1.16376
1.35402
1.50921
1.60876
1.61066
1.6068
1.58889
1.58154
1.58547
1.5971
1.60145
1.59934
1.593
1.58271
1.57711
1.57726
1.58205
1.58739
1.58688
1.58448
1.57912
1.57513
1.57624
1
1
1
1
1
1
1
1
1
1
1
1
1
1
1
1
1
1
1
1
1
1
1
1
1
1
1
1
1
1
1
1
1
1
1
1
1
1
1
1
1
1
1
1
1
1
1
1
1
1
1
1
1
1
1
0.999998
1.00028
1.00532
1.06183
1.216
1.39665
1.53568
1.59672
1.59471
1.58286
1.57457
1.57882
1.59347
1.59818
1.59763
1.59242
1.58168
1.57498
1.57506
1.57982
1.58583
1.5858
1.58413
1.57878
1.57652
1
1
1
1
1
1
1
1
1
1
1
1
1
1
1
1
1
1
1
1
1
1
1
1
1
1
1
1
1
1
1
1
1
1
1
1
1
1
1
1
1
1
1
1
1
1
1
1
1
1
1
1
1
1
1
1
0.999999
1
1.00072
1.01317
1.09496
1.25198
1.41998
1.55129
1.57967
1.57106
1.56394
1.56988
1.58951
1.59584
1.59519
1.59148
1.58112
1.57359
1.57343
1.57803
1.58532
1.58611
1.58509
1.58025
1
1
1
1
1
1
1
1
1
1
1
1
1
1
1
1
1
1
1
1
1
1
1
1
1
1
1
1
1
1
1
1
1
1
1
1
1
1
1
1
1
1
1
1
1
1
1
1
1
1
1
1
1
1
1
1
1
1
0.999999
1.00004
1.00163
1.0217
1.11462
1.28383
1.44575
1.54768
1.55963
1.55635
1.56293
1.58221
1.59344
1.59325
1.59141
1.58196
1.5729
1.57282
1.57703
1.58514
1.58665
1.58507
1
1
1
1
1
1
1
1
1
1
1
1
1
1
1
1
1
1
1
1
1
1
1
1
1
1
1
1
1
1
1
1
1
1
1
1
1
1
1
1
1
1
1
1
1
1
1
1
1
1
1
1
1
1
1
1
1
1
1
1
0.999999
1.00011
1.00271
1.03261
1.13269
1.3036
1.46197
1.54061
1.54551
1.55378
1.57229
1.59057
1.59185
1.59152
1.58318
1.57225
1.57153
1.57526
1.58424
1.58699
1
1
1
1
1
1
1
1
1
1
1
1
1
1
1
1
1
1
1
1
1
1
1
1
1
1
1
1
1
1
1
1
1
1
1
1
1
1
1
1
1
1
1
1
1
1
1
1
1
1
1
1
1
1
1
1
1
1
1
1
1
1
1
1.00023
1.00427
1.04119
1.15645
1.32788
1.47571
1.52207
1.53938
1.56298
1.58766
1.59079
1.59079
1.58327
1.57247
1.57156
1.57568
1.58468
1
1
1
1
1
1
1
1
1
1
1
1
1
1
1
1
1
1
1
1
1
1
1
1
1
1
1
1
1
1
1
1
1
1
1
1
1
1
1
1
1
1
1
1
1
1
1
1
1
1
1
1
1
1
1
1
1
1
1
1
1
1
1
1
1
1.00039
1.00691
1.05152
1.17829
1.355
1.47044
1.51598
1.55124
1.58271
1.58953
1.58907
1.58584
1.5757
1.57257
1.57695
1
1
1
1
1
1
1
1
1
1
1
1
1
1
1
1
1
1
1
1
1
1
1
1
1
1
1
1
1
1
1
1
1
1
1
1
1
1
1
1
1
1
1
1
1
1
1
1
1
1
1
1
1
1
1
1
1
1
1
1
1
1
1
1
1
1
1.00001
1.00064
1.01013
1.06481
1.213
1.38193
1.47571
1.52544
1.56505
1.58711
1.58719
1.5877
1.581
1.57515
1
1
1
1
1
1
1
1
1
1
1
1
1
1
1
1
1
1
1
1
1
1
1
1
1
1
1
1
1
1
1
1
1
1
1
1
1
1
1
1
1
1
1
1
1
1
1
1
1
1
1
1
1
1
1
1
1
1
1
1
1
1
1
1
1
1
1
0.999999
1.00003
1.00116
1.01755
1.08933
1.25471
1.41096
1.49667
1.53814
1.57404
1.586
1.58718
1.58507
1
1
1
1
1
1
1
1
1
1
1
1
1
1
1
1
1
1
1
1
1
1
1
1
1
1
1
1
1
1
1
1
1
1
1
1
1
1
1
1
1
1
1
1
1
1
1
1
1
1
1
1
1
1
1
1
1
1
1
1
1
1
1
1
1
1
1
1
1
1
1.00011
1.00251
1.02874
1.13014
1.31498
1.44883
1.5103
1.55515
1.58439
1.58476
1
1
1
1
1
1
1
1
1
1
1
1
1
1
1
1
1
1
1
1
1
1
1
1
1
1
1
1
1
1
1
1
1
1
1
1
1
1
1
1
1
1
1
1
1
1
1
1
1
1
1
1
1
1
1
1
1
1
1
1
1
1
1
1
1
1
1
1
1
1
1
1
1.00029
1.00652
1.05143
1.19408
1.37049
1.48024
1.53911
1.57187
1
1
1
1
1
1
1
1
1
1
1
1
1
1
1
1
1
1
1
1
1
1
1
1
1
1
1
1
1
1
1
1
1
1
1
1
1
1
1
1
1
1
1
1
1
1
1
1
1
1
1
1
1
1
1
1
1
1
1
1
1
1
1
1
1
1
1
1
1
1
1
1
1
1.00002
1.0009
1.01624
1.09119
1.26552
1.41749
1.53644
1
1
1
1
1
1
1
1
1
1
1
1
1
1
1
1
1
1
1
1
1
1
1
1
1
1
1
1
1
1
1
1
1
1
1
1
1
1
1
1
1
1
1
1
1
1
1
1
1
1
1
1
1
1
1
1
1
1
1
1
1
1
1
1
1
1
1
1
1
1
1
1
1
1
1
1.00013
1.00292
1.03743
1.14462
1.42143
1
1
1
1
1
1
1
1
1
1
1
1
1
1
1
1
1
1
1
1
1
1
1
1
1
1
1
1
1
1
1
1
1
1
1
1
1
1
1
1
1
1
1
1
1
1
1
1
1
1
1
1
1
1
1
1
1
1
1
1
1
1
1
1
1
1
1
1
1
1
1
1
1
1
1
1
1.00001
1.00061
1.00815
1.18813
1
1
1
1
1
1
1
1
1
1
1
1
1
1
1
1
1
1
1
1
1
1
1
1
1
1
1
1
1
1
1
1
1
1
1
1
1
1
1
1
1
1
1
1
1
1
1
1
1
1
1
1
1
1
1
1
1
1
1
1
1
1
1
1
1
1
1
1
1
1
1
1
1
1
1
1
1
1
1.00009
1.02477
1
1
1
1
1
1
1
1
1
1
1
1
1
1
1
1
1
1
1
1
1
1
1
1
1
1
1
1
1
1
1
1
1
1
1
1
1
1
1
1
1
1
1
1
1
1
1
1
1
1
1
1
1
1
1
1
1
1
1
1
1
1
1
1
1
1
1
1
1
1
1
1
1
1
1
1
1
1
1
1.00085
1
1
1
1
1
1
1
1
1
1
1
1
1
1
1
1
1
1
1
1
1
1
1
1
1
1
1
1
1
1
1
1
1
1
1
1
1
1
1
1
1
1
1
1
1
1
1
1
1
1
1
1
1
1
1
1
1
1
1
1
1
1
1
1
1
1
1
1
1
1
1
1
1
1
1
1
1
1
1
1.00001
1
1
1
1
1
1
1
1
1
1
1
1
1
1
1
1
1
1
1
1
1
1
1
1
1
1
1
1
1
1
1
1
1
1
1
1
1
1
1
1
1
1
1
1
1
1
1
1
1
1
1
1
1
1
1
1
1
1
1
1
1
1
1
1
1
1
1
1
1
1
1
1
1
1
1
1
1
1
1
1
1
1
1
1
1
1
1
1
1
1
1
1
1
1
1
1
1
1
1
1
1
1
1
1
1
1
1
1
1
1
1
1
1
1
1
1
1
1
1
1
1
1
1
1
1
1
1
1
1
1
1
1
1
1
1
1
1
1
1
1
1
1
1
1
1
1
1
1
1
1
1
1
1
1
1
1
1
1
1
1
1
1
1
1
1
1
1
1
1
1
1
1
1
1
1
1
1
1
1
1
1
1
1
1
1
1
1
1
1
1
1
1
1
1
1
1
1
1
1
1
1
1
1
1
1
1
1
1
1
1
1
1
1
1
1
1
1
1
1
1
1
1
1
1
1
1
1
1
1
1
1
1
1
1
1
1
1
1
1
1
)
;

boundaryField
{
    inlet
    {
        type            fixedValue;
        value           uniform 1;
    }
    outlet
    {
        type            zeroGradient;
    }
    bottom
    {
        type            symmetryPlane;
    }
    top
    {
        type            symmetryPlane;
    }
    obstacle
    {
        type            zeroGradient;
    }
    defaultFaces
    {
        type            empty;
    }
}


// ************************************************************************* //
