/*--------------------------------*- C++ -*----------------------------------*\
| =========                 |                                                 |
| \\      /  F ield         | OpenFOAM: The Open Source CFD Toolbox           |
|  \\    /   O peration     | Version:  2206                                  |
|   \\  /    A nd           | Website:  www.openfoam.com                      |
|    \\/     M anipulation  |                                                 |
\*---------------------------------------------------------------------------*/
FoamFile
{
    version     2.0;
    format      ascii;
    arch        "LSB;label=32;scalar=64";
    class       volScalarField;
    location    "0.06";
    object      T;
}
// * * * * * * * * * * * * * * * * * * * * * * * * * * * * * * * * * * * * * //

dimensions      [0 0 0 1 0 0 0];

internalField   nonuniform List<scalar> 
4800
(
1
1
1
1
1
1
1
1
1
1
1
1
1
1
1
1
1
1
1
1
1
1
1
1
1
1
1
1
1
1
1
1
1
1
1
1
1
1
1
1
1
1
1
1
1
1
1
1
1
1
1
1
1
1
1
1
1
1
1
1
1
1
1
1
1
1
1
1
1
1
1
1
1
1
1
1
1
1
1
1
1
1
1
1
1
1
1
1
1
1
1
1
1
1
1
1
1
1
1
1
1
1
1
1
1
1
1
1
1
1
1
1
1
1
1
1
1
1
1
1
1
1
1
1
1
1
1
1
1
1
1
1
1
1
1
1
1
1
1
1
1
1
1
1
1
1
1
1
1
1
1
1
1
1
1
1
1
1
1
1
1
1
1
1
1
1
1
1
1
1
1
1
1
1
1
1
1
1
1
1
1
1
1
1
1
1
1
1
1
1
1
1
1
1
1
1
1
1
1
1
1
1
1
1
1
1
1
1
1
1
1
1
1
1
1
1
1
1
1
1
1
1
1
1
1
1
1
1
1
1
1
1
1
1
1
1
1
1
1
1
1
1
1
1
1
1
1
1
1
1
1
1
1
1
1
1
1
1
1
1
1
1
1
1
1
1
1
1
1
1
1
1
1
1
1
1
1
1
1
1
1
1
1
1
1
1
1
1
1
1
1
1
1
1
1
1
1
1
1
1
1
1
1
1
1
1
1
1
1
1
1
1
1
1
1
1
1
1
1
1
1
1
1
1
1
1
1
1
1
1
1
1
1
1
1
1
1
1
1
1
1
1
1
1
1
1
1
1
1
1
1
1
1
1
1
1
1
1
1
1
1
1
1
1
1
1
1
1
1
1
1
1
1
1
1
1
1
1
1
1
1
1
1
1
1
1
1
1
1
1
1
1
1
1
1
1
1
1
1
1
1
1
1
1
1
1
1
1
1
1
1
1
1
1
1
1
1
1
1
1
1
1
1
1
1
1
1
1
1
1
1
1
1
1
1
1
1
1
1
1
1
1
1
1
1
1
1
1
1
1
1
1
1
1
1
1
1
1
1
1
1
1
1
1
1
1
1
1
1
1
1
1
1
1
1
1
1
1
1
1
1
1
1
1
1
1
1
1
1
1
1
1
1
1
1
1
1
1
1
1
1
1
1
1
1
1
1
1
1
1
1
1
1
1
1
1
1
1
1
1
1
1
1
1
1
1
1
1
1
1
1
1
1
1
1
1
1
1
1
1
1
1
1
1
1
1
1
1
1
1
1
1
1
1
1
1
1
1
1
1
1
1
1
1
1
1
1
1
1
1
1
1
1
1
1
1
1
1
1
1
1
1
1
1
1
1
1
1
1
1
1
1
1
1
1
1
1
1
1
1
1
1
1
1
1
1
1
1
1
1
1
1
1
1
1
1
1
1
1
1
1
1
1
1
1
1
1
1
1
1
1
1
1
1
1
1
1
1
1
1
1
1
1
1
1
1
1
1
1
1
1
1
1
1
1
1
1
1
1
1
1
1
1
1
1
1
1
1
1
1
1
1
1
1
1
1
1
1
1
1
1
1
1
1
1
1
1
1
1
1
1
1
1
1
1
1
1
1
1
1
1
1
1
1
1
1
1
1
1
1
1
1
1
1
1
1
1
1
1
1
1
1
1
1
1
1
1
1
1
1
1
1
1
1
1
1
1
1
1
1
1
1
1
1
1
1
1
1
1
1
1
1
1
1
1
1
1
1
1
1
1
1
1
1
1
1
1
1
1
1
1
1
1
1
1
1
1
1
1
1
1
1
1
1
1
1
1
1
1
1
1
1
1
1
1
1
1
1
1
1
1
1
1
1
1
1
1
1
1
1
1
1
1
1
1
1
1
1
1
1
1
1
1
1
1
1
1
1
1
1
1
1
1
1
1
1
1
1
1
1
1
1
1
1
1
1
1
1
1
1
1
1
1
1
1
1
1
1
1
1
1
1
1
1
1
1
1
1
1
1
1
1
1
1
1
1
1
1
1
1
1
1
1
1
1
1
1
1
1
1
1
1
1
1
1
1
1
1
1
1
1
1
1
1
1
1
1
1
1
1
1
1
1
1
1
1
1
1
1
1
1
1
1
1
1
1
1
1
1
1
1
1
1
1
1
1
1
1
1
1
1
1
1
1
1
1
1
1
1
1
1
1
1
1
1
1
1
1
1
1
1
1
1
1
1
1
1
1
1
1
1
1
1
1
1
1
1
1
1
1
1
1
1
1
1
1
1
1
1
1
1
1
1
1
1
1
1
1
1
1
1
1
1
1
1
1
1
1
1
1
1
1
1
1
1
1
1
1
1
1
1
1
1
1
1
1
1
1
1
1
1
1
1
1
1
1
1
1
1
1
1
1
1
1
1
1
1
1
1
1
1
1
1
1
1
1
1
1
1
1
1
1
1
1
1
1
1
1
1
1
1
1
1
1
1
1
1
1
1
1
1
1
1
1
1
1
1
1
1
1
1
1
1
1
1
1
1
1
1
1
1
1
1
1
1
1
1
1
1
1
1
1
1
1
1
1
1
1
1
1
1
1
1
1
1
1
1
1
1
1
1
1
1
1
1
1
1
1
1
1
1
1
1
1
1
1
1
1
1
1
1
1
1
1
1
1
1
1
1
1
1
1
1
1
1
1
1
1
1
1
1
1
1
1
1
1
1
1
1
1
1
1
1
1
1
1
1
1
1
1
1
1
1
1
1
1
1
1
1
1
1
1
1
1
1
1
1
1
1
1
1
1
1
1
1
1
1
1
1
1
1
1
1
1
1
1
1
1
1
1
1
1
1
1
1
1
1
1
1
1
1
1
1
1
1
1
1
1
1
1
1
1
1
1
1
1
1
1
1
1
1
1
1
1
1
1
1
1
1
1
1
1
1
1
1
1
1
1
1
1
1
1
1
1
1
1
1
1
1
1
1
1
1
1
1
1
1
1
1
1
1
1
1
1
1
1
1
1
1
1
1
1
1
1
1
1
1
1
1
1
1
1
1
1
1
1
1
1
1
1
1
1
1
1
1
1
1
1
1
1
1
1
1
1
1
1
1
1
1
1
1
1
1
1
1
1
1
1
1
1
1
1
1
1
1
1
1
1
1
1
1
1
1
1
1
1
1
1
1
1
1
1
1
1
1
1
1
1
1
1
1
1
1
1
1
1
1
1
1
1
1
1
1
1
1
1
1
1
1
1
1
1
1
1
1
1
1
1
1
1
1
1
1
1
1
1
1
1
1
1
1
1
1
1
1
1
1
1
1
1
1
1
1
1
1
1
1
1
1
1
1
1
1
1
1
1
1
1
1
1
1
1
1
1
1
1
1
1
1
1
1
1
1
1
1
1
1
1
1
1
1
1
1
1
1
1
1
1
1
1
1
1
1
1
1
1
1
1
1
1
1
1
1
1
1
1
1
1
1
1
1
1
1
1
1
1
1
1
1
1
1
1
1
1
1
1
1
1
1
1
1
1
1
1
1
1
1
1
1
1
1
1
1
1
1
1
1
1
1
1
1
1
1
1
1
1
1
1
1
1
1
1
1
1
1
1
1
1
1
1
1
1
1
1
1
1
1
1
1
1
1
1
1
1
1
1
1
1
1
1
1
1
1
1
1
1
1
1
1
1
1.07186
1.16786
1.26631
1.35062
1.43703
1.51436
1.57702
1.64308
1.67221
1.69642
1.71185
1.7077
1.69116
1.65403
1.60829
1.5723
1.55787
1.54621
1.52865
1.52567
1.52794
1.53344
1.53891
1.54162
1.54501
1.54977
1.55516
1.56088
1.56258
1.56223
1.5616
1.56173
1.56261
1.5631
1.56302
1.56263
1.56178
1.5606
1.55947
1.55877
1.5582
1.55723
1.55514
1.55164
1.54716
1.54225
1.54028
1.53993
1.53953
1.53912
1.53917
1.53935
1.5393
1.5389
1.53786
1.53597
1.53412
1.5338
1.53385
1.53387
1.53363
1.53397
1.53571
1.5363
1.53639
1.53685
1.53753
1.53789
1.53795
1.53816
1.53863
1.53896
1.53911
1.53927
1.53974
1.54102
1.54373
1.5485
1.55384
1.55615
1.00027
1.00124
1.01079
1.04202
1.07796
1.14315
1.21094
1.27701
1.34909
1.39795
1.45405
1.49109
1.52043
1.53482
1.56036
1.58931
1.59364
1.58855
1.57932
1.57461
1.56915
1.56338
1.55874
1.55446
1.55225
1.55283
1.5552
1.55953
1.56143
1.5619
1.56318
1.5653
1.56602
1.56617
1.56655
1.56643
1.56605
1.56546
1.56423
1.56266
1.5609
1.55839
1.5548
1.5505
1.54628
1.54214
1.54084
1.54062
1.54053
1.54064
1.54105
1.54111
1.54078
1.53989
1.53839
1.53598
1.53347
1.533
1.53309
1.53334
1.53347
1.53419
1.53619
1.5367
1.53695
1.53761
1.53845
1.53908
1.53939
1.53962
1.53987
1.54
1.54009
1.54028
1.54088
1.54247
1.54568
1.55063
1.55541
1.55712
1
1
0.999996
1
0.999912
1.00009
1.00219
1.0098
1.0401
1.08908
1.17781
1.2931
1.41351
1.53926
1.58893
1.64197
1.64618
1.64293
1.63285
1.62067
1.60969
1.58974
1.57601
1.56895
1.56476
1.56469
1.56596
1.56884
1.56997
1.56941
1.56972
1.57129
1.57245
1.57413
1.57608
1.57634
1.57635
1.57607
1.5746
1.57202
1.56924
1.56553
1.56063
1.55573
1.55111
1.54771
1.54689
1.54682
1.54681
1.54691
1.54693
1.54678
1.54612
1.54486
1.54287
1.53993
1.53718
1.53631
1.53621
1.53633
1.53646
1.53767
1.53988
1.54007
1.54037
1.54138
1.54263
1.54345
1.54381
1.5438
1.54359
1.54335
1.54338
1.54353
1.54425
1.54599
1.54939
1.55457
1.55901
1.5602
1
1
1
1
1
1
1
0.999992
1
0.999936
1.00095
1.01126
1.05333
1.18331
1.32766
1.46449
1.55677
1.59174
1.61619
1.61167
1.60858
1.61427
1.61638
1.61338
1.60363
1.59819
1.59462
1.59091
1.58361
1.57684
1.57612
1.57718
1.57963
1.5833
1.58777
1.5894
1.58949
1.58938
1.58795
1.58436
1.57961
1.57468
1.57005
1.56505
1.56015
1.55756
1.55693
1.55658
1.55629
1.55612
1.55575
1.55505
1.55393
1.5522
1.54934
1.54571
1.54233
1.54066
1.54039
1.54051
1.54082
1.54283
1.54544
1.54556
1.54618
1.54783
1.54964
1.55051
1.55059
1.55052
1.55018
1.54972
1.54948
1.54968
1.55045
1.55223
1.55571
1.56094
1.56498
1.56574
1
1
1
1
1
1
1
1
1
1
0.999998
1
0.999941
1.00067
1.01235
1.05717
1.19973
1.34169
1.46559
1.54466
1.59215
1.63674
1.64061
1.63842
1.63348
1.62705
1.61832
1.60654
1.59692
1.5903
1.58846
1.58858
1.58964
1.59136
1.59364
1.59501
1.59539
1.59546
1.59459
1.5927
1.58919
1.58479
1.58024
1.57449
1.56983
1.56739
1.56621
1.56547
1.56486
1.56421
1.56327
1.56204
1.56042
1.55809
1.55515
1.55164
1.54783
1.54542
1.54522
1.54539
1.54587
1.54843
1.55018
1.55046
1.55194
1.55453
1.55691
1.55802
1.55818
1.55813
1.55777
1.55718
1.55697
1.55698
1.55739
1.55909
1.56284
1.56819
1.57191
1.57233
1
1
1
1
1
1
1
1
1
1
1
1
1
0.999998
1
0.999954
1.00164
1.01607
1.06465
1.20749
1.34454
1.47199
1.53482
1.57641
1.60015
1.60963
1.61258
1.61649
1.61463
1.60967
1.6063
1.60336
1.60049
1.59703
1.5932
1.59223
1.59247
1.59333
1.59455
1.5945
1.5928
1.58963
1.58534
1.58045
1.57603
1.57345
1.57222
1.57142
1.57029
1.56908
1.56752
1.56562
1.56323
1.56038
1.55727
1.55332
1.54927
1.54705
1.547
1.54727
1.54805
1.5509
1.55256
1.55376
1.55617
1.55928
1.5618
1.56296
1.56338
1.56337
1.56313
1.56264
1.56247
1.56252
1.56307
1.56489
1.56879
1.57424
1.57769
1.57796
1
1
1
1
1
1
1
1
1
1
1
1
1
1
1
0.999999
0.999999
1
0.999987
1.00258
1.01857
1.08217
1.22696
1.35394
1.46385
1.53045
1.59478
1.61341
1.61573
1.61578
1.61455
1.61089
1.60416
1.59775
1.5924
1.59084
1.59117
1.59203
1.59298
1.59216
1.58978
1.58636
1.58273
1.57961
1.57741
1.57655
1.57533
1.57288
1.57063
1.56877
1.5665
1.56403
1.56091
1.55806
1.55505
1.55122
1.54787
1.54662
1.54659
1.54675
1.5481
1.55136
1.55301
1.55486
1.5577
1.56098
1.5635
1.56478
1.56543
1.56552
1.56541
1.5651
1.56487
1.56508
1.56608
1.5685
1.57272
1.57791
1.58095
1.58129
1
1
1
1
1
1
1
1
1
1
1
1
1
1
1
1
1
1
1
1
0.999985
1.00012
1.00468
1.02439
1.1155
1.24549
1.3766
1.47094
1.52865
1.57687
1.58805
1.5951
1.60399
1.60293
1.59784
1.5949
1.5949
1.59392
1.59249
1.5896
1.58488
1.57906
1.57597
1.57471
1.57455
1.57476
1.57433
1.57249
1.56997
1.5673
1.5643
1.5603
1.55654
1.55327
1.55133
1.54947
1.547
1.54599
1.54591
1.546
1.54753
1.54939
1.55102
1.55329
1.55647
1.56004
1.56279
1.56454
1.56553
1.56571
1.56569
1.56543
1.56543
1.5658
1.5672
1.57017
1.57483
1.5797
1.58196
1.58226
1
1
1
1
1
1
1
1
1
1
1
1
1
1
1
1
1
1
1
1
1
0.999999
1
0.999987
1.00061
1.00674
1.03642
1.14571
1.26983
1.40204
1.48279
1.54612
1.59283
1.59453
1.594
1.59431
1.59402
1.59226
1.5894
1.58574
1.58068
1.57322
1.56891
1.56826
1.56835
1.56874
1.56864
1.56716
1.56439
1.56142
1.55857
1.55546
1.55269
1.55025
1.54804
1.54583
1.54382
1.54255
1.54206
1.54233
1.54439
1.54624
1.54823
1.55105
1.55462
1.55856
1.5616
1.56343
1.56449
1.56508
1.56518
1.56522
1.56531
1.56581
1.56736
1.57056
1.57551
1.58033
1.58216
1.58224
1
1
1
1
1
1
1
1
1
1
1
1
1
1
1
1
1
1
1
1
1
1
1
1
1
0.999996
1.00001
1.00156
1.01164
1.06496
1.19921
1.32034
1.43959
1.49707
1.54497
1.57464
1.57936
1.58238
1.58651
1.58691
1.58437
1.5769
1.56936
1.56554
1.56295
1.56064
1.55838
1.5562
1.5549
1.55389
1.55251
1.55063
1.54839
1.54559
1.54262
1.54017
1.53861
1.5373
1.53686
1.53754
1.53968
1.54118
1.54347
1.54693
1.55082
1.55511
1.55879
1.56138
1.56297
1.56379
1.56418
1.56435
1.56455
1.56519
1.56688
1.57014
1.57504
1.57964
1.58125
1.58132
1
1
1
1
1
1
1
1
1
1
1
1
1
1
1
1
1
1
1
1
1
1
1
1
1
1
1
1
0.999993
1.0002
1.00487
1.0261
1.10545
1.24929
1.3669
1.47523
1.51779
1.55977
1.57881
1.57984
1.57829
1.57188
1.56267
1.55771
1.55585
1.55409
1.55157
1.54993
1.54849
1.54633
1.5438
1.54121
1.53881
1.53641
1.53386
1.53256
1.5319
1.53167
1.53187
1.53302
1.53545
1.53745
1.5396
1.54268
1.54697
1.55098
1.55394
1.55655
1.55838
1.55957
1.56038
1.56092
1.56145
1.56244
1.56457
1.56833
1.57351
1.57776
1.57897
1.57915
1
1
1
1
1
1
1
1
1
1
1
1
1
1
1
1
1
1
1
1
1
1
1
1
1
1
1
1
1
1
0.999998
1.00002
1.00087
1.01212
1.0529
1.16753
1.31727
1.42978
1.49572
1.53336
1.55302
1.54947
1.54677
1.54872
1.55038
1.55027
1.54954
1.54759
1.5438
1.53781
1.53328
1.53048
1.52858
1.52719
1.52586
1.52582
1.52646
1.52761
1.52879
1.52974
1.53104
1.53301
1.53481
1.53747
1.54178
1.54572
1.54827
1.55074
1.55292
1.55445
1.55555
1.55635
1.55711
1.55842
1.5611
1.5657
1.57138
1.5751
1.57598
1.57629
1
1
1
1
1
1
1
1
1
1
1
1
1
1
1
1
1
1
1
1
1
1
1
1
1
1
1
1
1
1
1
1
1
0.999998
1.0002
1.00327
1.03535
1.10774
1.247
1.37684
1.49047
1.51917
1.53778
1.54313
1.5408
1.53865
1.53815
1.53655
1.53335
1.52704
1.52151
1.52042
1.52082
1.52251
1.5242
1.52485
1.52496
1.52575
1.52682
1.52689
1.52726
1.52871
1.53012
1.53223
1.53613
1.54035
1.54345
1.54641
1.54878
1.55044
1.55174
1.55308
1.55418
1.55548
1.55806
1.56291
1.56867
1.57158
1.57205
1.57238
1
1
1
1
1
1
1
1
1
1
1
1
1
1
1
1
1
1
1
1
1
1
1
1
1
1
1
1
1
1
1
1
1
1
1
0.999996
1.00009
1.00118
1.01577
1.07614
1.19521
1.33877
1.44081
1.49131
1.50091
1.50479
1.51216
1.51536
1.51875
1.52094
1.51984
1.51972
1.52197
1.52414
1.52469
1.52357
1.52254
1.52261
1.5237
1.52396
1.52391
1.52477
1.52598
1.52777
1.53111
1.53527
1.5393
1.54291
1.54542
1.54716
1.54883
1.55095
1.55245
1.5535
1.55552
1.56007
1.56545
1.56756
1.56784
1.56827
1
1
1
1
1
1
1
1
1
1
1
1
1
1
1
1
1
1
1
1
1
1
1
1
1
1
1
1
1
1
1
1
1
1
1
1
1
0.999998
1.00002
1.00066
1.00704
1.05434
1.141
1.25876
1.36993
1.43217
1.46851
1.48997
1.50857
1.51992
1.51923
1.51768
1.51882
1.5216
1.52155
1.51859
1.51642
1.517
1.51987
1.52191
1.52275
1.52278
1.52388
1.52586
1.52911
1.53177
1.53499
1.53905
1.54156
1.54316
1.54503
1.54774
1.54984
1.55156
1.55423
1.55877
1.56298
1.56441
1.56467
1.56507
1
1
1
1
1
1
1
1
1
1
1
1
1
1
1
1
1
1
1
1
1
1
1
1
1
1
1
1
1
1
1
1
1
1
1
1
1
1
1
1
1
1.00032
1.00287
1.02108
1.07457
1.17195
1.2807
1.36335
1.41629
1.46675
1.49664
1.49797
1.49908
1.50607
1.51527
1.51556
1.5154
1.51753
1.52236
1.52562
1.5256
1.52404
1.52273
1.52363
1.52662
1.52865
1.53104
1.53503
1.53784
1.53966
1.54136
1.54397
1.54688
1.55031
1.55455
1.55902
1.56175
1.56258
1.56279
1.56278
1
1
1
1
1
1
1
1
1
1
1
1
1
1
1
1
1
1
1
1
1
1
1
1
1
1
1
1
1
1
1
1
1
1
1
1
1
1
1
1
1
1
0.999998
1.00005
1.00071
1.00633
1.02737
1.08876
1.17441
1.26858
1.3696
1.43706
1.46599
1.49139
1.51222
1.52102
1.5202
1.52013
1.52127
1.52422
1.52465
1.5219
1.51835
1.51906
1.52263
1.52599
1.52815
1.53155
1.53606
1.53929
1.54085
1.54239
1.54533
1.54948
1.55496
1.55958
1.56072
1.56081
1.56091
1.56087
1
1
1
1
1
1
1
1
1
1
1
1
1
1
1
1
1
1
1
1
1
1
1
1
1
1
1
1
1
1
1
1
1
1
1
1
1
1
1
1
1
1
1
1
1
1
1.00009
1.00119
1.00643
1.03055
1.08891
1.18338
1.29066
1.36595
1.42032
1.4798
1.50199
1.50123
1.50111
1.50826
1.51644
1.51871
1.51741
1.5176
1.52124
1.52713
1.53088
1.53213
1.53432
1.53805
1.54197
1.54357
1.54545
1.54912
1.55507
1.55894
1.55932
1.55917
1.55895
1.55909
1
1
1
1
1
1
1
1
1
1
1
1
1
1
1
1
1
1
1
1
1
1
1
1
1
1
1
1
1
1
1
1
1
1
1
1
1
1
1
1
1
1
1
1
1
1
1
1
1
1.00013
1.00125
1.00813
1.03324
1.09368
1.18819
1.28979
1.38007
1.45162
1.47503
1.49256
1.5115
1.52346
1.52271
1.52079
1.52155
1.52559
1.52996
1.53101
1.53178
1.53461
1.54074
1.54454
1.54614
1.54921
1.55394
1.55749
1.55842
1.55861
1.55841
1.55826
1
1
1
1
1
1
1
1
1
1
1
1
1
1
1
1
1
1
1
1
1
1
1
1
1
1
1
1
1
1
1
1
1
1
1
1
1
1
1
1
1
1
1
1
1
1
1
1
1
1
1
1.00001
1.00016
1.00152
1.00892
1.03893
1.11085
1.20244
1.31313
1.39187
1.43263
1.48095
1.51028
1.50968
1.50796
1.5117
1.52199
1.52996
1.53154
1.53237
1.53777
1.5458
1.55009
1.55268
1.55515
1.55671
1.5579
1.55848
1.55849
1.55789
1
1
1
1
1
1
1
1
1
1
1
1
1
1
1
1
1
1
1
1
1
1
1
1
1
1
1
1
1
1
1
1
1
1
1
1
1
1
1
1
1
1
1
1
1
1
1
1
1
1
1
1
1
1
1.00001
1.00025
1.00226
1.01167
1.04832
1.12007
1.22392
1.32057
1.40129
1.46927
1.49236
1.49942
1.51358
1.52911
1.53458
1.53582
1.53895
1.54531
1.55176
1.5558
1.55623
1.55566
1.5551
1.55586
1.55732
1.55709
1
1
1
1
1
1
1
1
1
1
1
1
1
1
1
1
1
1
1
1
1
1
1
1
1
1
1
1
1
1
1
1
1
1
1
1
1
1
1
1
1
1
1
1
1
1
1
1
1
1
1
1
1
1
1
1
1
1.00002
1.00039
1.00301
1.0164
1.05869
1.14869
1.24698
1.34619
1.42565
1.46764
1.49043
1.51659
1.53359
1.53517
1.53791
1.54476
1.55243
1.55585
1.55549
1.55398
1.55391
1.55521
1.55702
1
1
1
1
1
1
1
1
1
1
1
1
1
1
1
1
1
1
1
1
1
1
1
1
1
1
1
1
1
1
1
1
1
1
1
1
1
1
1
1
1
1
1
1
1
1
1
1
1
1
1
1
1
1
1
1
1
1
1
1
1.00005
1.00065
1.00509
1.02251
1.07793
1.17247
1.2766
1.37197
1.43944
1.48166
1.52106
1.53628
1.53943
1.54643
1.55562
1.55886
1.55826
1.55617
1.55591
1.55697
1
1
1
1
1
1
1
1
1
1
1
1
1
1
1
1
1
1
1
1
1
1
1
1
1
1
1
1
1
1
1
1
1
1
1
1
1
1
1
1
1
1
1
1
1
1
1
1
1
1
1
1
1
1
1
1
1
1
1
1
1
1
1
1.0001
1.00123
1.00797
1.03397
1.09929
1.20086
1.3074
1.39003
1.45313
1.50915
1.52525
1.53349
1.54682
1.55478
1.55384
1.55139
1.55283
1
1
1
1
1
1
1
1
1
1
1
1
1
1
1
1
1
1
1
1
1
1
1
1
1
1
1
1
1
1
1
1
1
1
1
1
1
1
1
1
1
1
1
1
1
1
1
1
1
1
1
1
1
1
1
1
1
1
1
1
1
1
1
1
1
1.00001
1.00022
1.00206
1.0117
1.04511
1.11214
1.21271
1.31239
1.39449
1.45755
1.49502
1.52325
1.54605
1.55003
1.54986
1
1
1
1
1
1
1
1
1
1
1
1
1
1
1
1
1
1
1
1
1
1
1
1
1
1
1
1
1
1
1
1
1
1
1
1
1
1
1
1
1
1
1
1
1
1
1
1
1
1
1
1
1
1
1
1
1
1
1
1
1
1
1
1
1
1
1
1
1.00003
1.00037
1.00251
1.01273
1.04264
1.10652
1.19602
1.29928
1.38713
1.4551
1.49979
1.53363
1
1
1
1
1
1
1
1
1
1
1
1
1
1
1
1
1
1
1
1
1
1
1
1
1
1
1
1
1
1
1
1
1
1
1
1
1
1
1
1
1
1
1
1
1
1
1
1
1
1
1
1
1
1
1
1
1
1
1
1
1
1
1
1
1
1
1
1
1
1
1
1.00003
1.0003
1.00204
1.00967
1.037
1.1001
1.20059
1.30167
1.44418
1
1
1
1
1
1
1
1
1
1
1
1
1
1
1
1
1
1
1
1
1
1
1
1
1
1
1
1
1
1
1
1
1
1
1
1
1
1
1
1
1
1
1
1
1
1
1
1
1
1
1
1
1
1
1
1
1
1
1
1
1
1
1
1
1
1
1
1
1
1
1
1
1
1
1.00002
1.00023
1.00192
1.0112
1.04081
1.19616
1
1
1
1
1
1
1
1
1
1
1
1
1
1
1
1
1
1
1
1
1
1
1
1
1
1
1
1
1
1
1
1
1
1
1
1
1
1
1
1
1
1
1
1
1
1
1
1
1
1
1
1
1
1
1
1
1
1
1
1
1
1
1
1
1
1
1
1
1
1
1
1
1
1
1
1
1
1.00003
1.00032
1.01378
1
1
1
1
1
1
1
1
1
1
1
1
1
1
1
1
1
1
1
1
1
1
1
1
1
1
1
1
1
1
1
1
1
1
1
1
1
1
1
1
1
1
1
1
1
1
1
1
1
1
1
1
1
1
1
1
1
1
1
1
1
1
1
1
1
1
1
1
1
1
1
1
1
1
1
1
1
1
1
1.00009
1
1
1
1
1
1
1
1
1
1
1
1
1
1
1
1
1
1
1
1
1
1
1
1
1
1
1
1
1
1
1
1
1
1
1
1
1
1
1
1
1
1
1
1
1
1
1
1
1
1
1
1
1
1
1
1
1
1
1
1
1
1
1
1
1
1
1
1
1
1
1
1
1
1
1
1
1
1
1
1
1
1
1
1
1
1
1
1
1
1
1
1
1
1
1
1
1
1
1
1
1
1
1
1
1
1
1
1
1
1
1
1
1
1
1
1
1
1
1
1
1
1
1
1
1
1
1
1
1
1
1
1
1
1
1
1
1
1
1
1
1
1
1
1
1
1
1
1
1
1
1
1
1
1
1
1
1
1
1
1
1
1
1
1
1
1
1
1
1
1
1
1
1
1
1
1
1
1
1
1
1
1
1
1
1
1
1
1
1
1
1
1
1
1
1
1
1
1
1
1
1
1
1
1
1
1
1
1
1
1
1
1
1
1
1
1
1
1
1
1
1
1
1
1
1
1
1
1
1
1
1
1
1
1
1
1
1
1
1
1
1
1
1
1
1
1
1
1
1
1
1
1
1
1
1
1
1
1
1
1
1
1
1
1
1
1
1
1
1
1
1
1
1
1
1
1
1
1
1
1
1
1
1
1
1
1
1
1
1
1
1
1
1
1
1
1
1
1
1
1
1
1
1
1
1
1
1
1
1
1
1
1
1
1
1
1
1
1
1
1
1
1
1
1
1
1
1
1
1
1
1
1
1
1
1
1
1
1
1
1
1
1
1
1
1
1
1
1
1
1
1
1
1
1
1
1
1
1
1
1
1
1
1
1
1
1
1
1
1
1
1
1
1
1
1
1
1
1
1
1
1
1
1
1
1
1
1
1
1
1
1
1
1
1
1
1
1
1
1
1
1
1
1
1
1
1
1
1
1
1
1
1
1
1
1
1
1
1
1
1
1
1
1
1
1
1
1
1
1
1
1
1
1
1
1
1
1
1
1
1
1
1
1
1
1
1
1
1
1
1
1
1
1
1
1
1
1
1
1
1
1
1
1
1
1
1
1
1
1
1
1
1
1
1
1
1
1
1
1
1
1
1
1
1
1
1
1
1
1
1
1
1
1
1
1
1
1
1
1
1
1
1
1
1
1
1
1
1
1
1
1
1
1
1
1
1
1
1
1
1
1
1
1
1
1
1
1
1
1
1
1
1
1
1
1
1
1
1
1
1
1
1
1
1
1
1
1
1
1
1
1
1
1
1
1
1
1
1
1
1
1
1
1
1
1
1
1
1
1
1
1
1
1
1
1
1
1
1
1
1
1
1
1
1
1
1
1
1
1
1
1
1
1
1
1
1
1
1
1
1
1
1
1
1
1
1
1
1
1
1
1
1
1
1
1
1
1
1
1
1
1
1
1
1
1
1
1
1
1
1
1
1
1
1
1
1
1
1
1
1
1
1
1
1
1
1
1
1
1
1
1
1
1
1
1
1
1
1
1
1
1
1
1
1
1
1
1
1
1
1
1
1
1
1
1
1
1
1
1
1
1
1
1
1
1
1
1
1
1
1
1
1
1
1
1
1
1
1
1
1
1
1
1
1
1
1
1
1
1
1
1
1
1
1
1
1
1
1
1
1
1
1
1
1
1
1
1
1
1
1
1
1
1
1
1
1
1
1
1
1
1
1
1
1
1
1
1
1
1
1
1
1
1
1
1
1
1
1
1
1
1
1
1
1
1
1
1
1
1
1
1
1
1
1
1
1
1
1
1
1
1
1
1
1
1
1
1
1
1
1
1
1
1
1
1
1
1
1
1
1
)
;

boundaryField
{
    inlet
    {
        type            fixedValue;
        value           uniform 1;
    }
    outlet
    {
        type            zeroGradient;
    }
    bottom
    {
        type            symmetryPlane;
    }
    top
    {
        type            symmetryPlane;
    }
    obstacle
    {
        type            zeroGradient;
    }
    defaultFaces
    {
        type            empty;
    }
}


// ************************************************************************* //
