/*--------------------------------*- C++ -*----------------------------------*\
| =========                 |                                                 |
| \\      /  F ield         | OpenFOAM: The Open Source CFD Toolbox           |
|  \\    /   O peration     | Version:  2206                                  |
|   \\  /    A nd           | Website:  www.openfoam.com                      |
|    \\/     M anipulation  |                                                 |
\*---------------------------------------------------------------------------*/
FoamFile
{
    version     2.0;
    format      ascii;
    arch        "LSB;label=32;scalar=64";
    class       volVectorField;
    location    "0.04";
    object      U;
}
// * * * * * * * * * * * * * * * * * * * * * * * * * * * * * * * * * * * * * //

dimensions      [0 1 -1 0 0 0 0];

internalField   nonuniform List<vector> 
75
(
(6.79798 -3.11179e-15 0)
(6.79798 -3.08387e-15 0)
(6.79798 5.54262e-17 0)
(6.79798 -6.5428e-17 0)
(6.79798 -3.12137e-16 0)
(6.79798 -8.66816e-17 0)
(6.79798 -3.76565e-15 0)
(6.79798 -3.70106e-15 0)
(6.79798 -3.63021e-15 0)
(6.79798 -3.36647e-15 0)
(6.79798 -3.13054e-15 0)
(6.79798 -3.05553e-15 0)
(6.79798 -5.89018e-15 0)
(6.79798 -5.57638e-15 0)
(6.79798 -1.25212e-15 0)
(6.79798 -2.93426e-15 0)
(6.79798 -1.44608e-16 0)
(6.79798 2.17871e-15 0)
(6.79798 4.71831e-15 0)
(6.79798 8.64347e-15 0)
(6.79798 2.94342e-15 0)
(6.79798 2.83132e-15 0)
(6.79798 4.95586e-15 0)
(6.79798 9.34661e-15 0)
(6.79798 9.52998e-15 0)
(6.77647 0.00686255 0)
(6.73798 0.046876 0)
(6.69456 0.101547 0)
(6.643 0.194022 0)
(6.58736 0.304068 0)
(6.52726 0.44971 0)
(6.48075 0.594373 0)
(6.45348 0.742891 0)
(6.44736 0.858186 0)
(6.46619 1.01975 0)
(6.79798 3.78328e-06 0)
(6.79798 1.13787e-05 0)
(6.79799 2.13734e-05 0)
(6.80126 0.000615577 0)
(6.79702 -0.0103405 0)
(6.75369 0.095221 0)
(6.69819 0.253357 0)
(6.60667 0.558647 0)
(6.56433 0.775539 0)
(6.47822 1.24502 0)
(6.79798 -2.60896e-10 0)
(6.79798 -1.18205e-09 0)
(6.79798 -3.29011e-09 0)
(6.79798 -1.97237e-05 0)
(6.79798 2.12303e-05 0)
(6.79798 3.79202e-07 0)
(6.79805 -0.00067981 0)
(6.79761 0.00159878 0)
(6.79907 -0.00349571 0)
(6.78816 0.0634562 0)
(6.79798 1.67531e-13 0)
(6.79798 -8.11976e-12 0)
(6.79798 1.07592e-11 0)
(6.79798 -2.92728e-07 0)
(6.79798 4.12805e-07 0)
(6.79798 -4.28323e-08 0)
(6.79798 -1.65138e-05 0)
(6.79798 -4.63259e-06 0)
(6.79804 -0.000284828 0)
(6.79798 -4.41496e-05 0)
(6.79798 -2.50507e-14 0)
(6.79798 -5.22448e-13 0)
(6.79798 -3.77661e-13 0)
(6.79798 -1.15016e-08 0)
(6.79798 1.52041e-08 0)
(6.79798 3.53643e-09 0)
(6.79798 2.76301e-08 0)
(6.79798 -1.93164e-07 0)
(6.79798 1.23953e-06 0)
(6.79798 -9.33778e-06 0)
)
;

boundaryField
{
    inlet
    {
        type            fixedValue;
        value           uniform (6.79798 0 0);
    }
    outlet
    {
        type            zeroGradient;
    }
    bottom
    {
        type            symmetryPlane;
    }
    top
    {
        type            symmetryPlane;
    }
    obstacle
    {
        type            slip;
    }
    defaultFaces
    {
        type            empty;
    }
}


// ************************************************************************* //
