/*--------------------------------*- C++ -*----------------------------------*\
| =========                 |                                                 |
| \\      /  F ield         | OpenFOAM: The Open Source CFD Toolbox           |
|  \\    /   O peration     | Version:  2206                                  |
|   \\  /    A nd           | Website:  www.openfoam.com                      |
|    \\/     M anipulation  |                                                 |
\*---------------------------------------------------------------------------*/
FoamFile
{
    version     2.0;
    format      ascii;
    arch        "LSB;label=32;scalar=64";
    class       volScalarField;
    location    "0.06";
    object      p;
}
// * * * * * * * * * * * * * * * * * * * * * * * * * * * * * * * * * * * * * //

dimensions      [1 -1 -2 0 0 0 0];

internalField   nonuniform List<scalar> 
4800
(
1
1
1
1
1
1
1
1
1
1
1
1
1
1
1
1
1
1
1
1
1
1
1
1
1
1
1
1
1
1
1
1
1
1
1
1
1
1
1
1
1
1
1
1
1
1
1
1
1
1
1
1
1
1
1
1
1
1
1
1
1
1
1
1
1
1
1
1
1
1
1
1
1
1
1
1
1
1
1
1
1
1
1
1
1
1
1
1
1
1
1
1
1
1
1
1
1
1
1
1
1
1
1
1
1
1
1
1
1
1
1
1
1
1
1
1
1
1
1
1
1
1
1
1
1
1
1
1
1
1
1
1
1
1
1
1
1
1
1
1
1
1
1
1
1
1
1
1
1
1
1
1
1
1
1
1
1
1
1
1
1
1
1
1
1
1
1
1
1
1
1
1
1
1
1
1
1
1
1
1
1
1
1
1
1
1
1
1
1
1
1
1
1
1
1
1
1
1
1
1
1
1
1
1
1
1
1
1
1
1
1
1
1
1
1
1
1
1
1
1
1
1
1
1
1
1
1
1
1
1
1
1
1
1
1
1
1
1
1
1
1
1
1
1
1
1
1
1
1
1
1
1
1
1
1
1
1
1
1
1
1
1
1
1
1
1
1
1
1
1
1
1
1
1
1
1
1
1
1
1
1
1
1
1
1
1
1
1
1
1
1
1
1
1
1
1
1
1
1
1
1
1
1
1
1
1
1
1
1
1
1
1
1
1
1
1
1
1
1
1
1
1
1
1
1
1
1
1
1
1
1
1
1
1
1
1
1
1
1
1
1
1
1
1
1
1
1
1
1
1
1
1
1
1
1
1
1
1
1
1
1
1
1
1
1
1
1
1
1
1
1
1
1
1
1
1
1
1
1
1
1
1
1
1
1
1
1
1
1
1
1
1
1
1
1
1
1
1
1
1
1
1
1
1
1
1
1
1
1
1
1
1
1
1
1
1
1
1
1
1
1
1
1
1
1
1
1
1
1
1
1
1
1
1
1
1
1
1
1
1
1
1
1
1
1
1
1
1
1
1
1
1
1
1
1
1
1
1
1
1
1
1
1
1
1
1
1
1
1
1
1
1
1
1
1
1
1
1
1
1
1
1
1
1
1
1
1
1
1
1
1
1
1
1
1
1
1
1
1
1
1
1
1
1
1
1
1
1
1
1
1
1
1
1
1
1
1
1
1
1
1
1
1
1
1
1
1
1
1
1
1
1
1
1
1
1
1
1
1
1
1
1
1
1
1
1
1
1
1
1
1
1
1
1
1
1
1
1
1
1
1
1
1
1
1
1
1
1
1
1
1
1
1
1
1
1
1
1
1
1
1
1
1
1
1
1
1
1
1
1
1
1
1
1
1
1
1
1
1
1
1
1
1
1
1
1
1
1
1
1
1
1
1
1
1
1
1
1
1
1
1
1
1
1
1
1
1
1
1
1
1
1
1
1
1
1
1
1
1
1
1
1
1
1
1
1
1
1
1
1
1
1
1
1
1
1
1
1
1
1
1
1
1
1
1
1
1
1
1
1
1
1
1
1
1
1
1
1
1
1
1
1
1
1
1
1
1
1
1
1
1
1
1
1
1
1
1
1
1
1
1
1
1
1
1
1
1
1
1
1
1
1
1
1
1
1
1
1
1
1
1
1
1
1
1
1
1
1
1
1
1
1
1
1
1
1
1
1
1
1
1
1
1
1
1
1
1
1
1
1
1
1
1
1
1
1
1
1
1
1
1
1
1
1
1
1
1
1
1
1
1
1
1
1
1
1
1
1
1
1
1
1
1
1
1
1
1
1
1
1
1
1
1
1
1
1
1
1
1
1
1
1
1
1
1
1
1
1
1
1
1
1
1
1
1
1
1
1
1
1
1
1
1
1
1
1
1
1
1
1
1
1
1
1
1
1
1
1
1
1
1
1
1
1
1
1
1
1
1
1
1
1
1
1
1
1
1
1
1
1
1
1
1
1
1
1
1
1
1
1
1
1
1
1
1
1
1
1
1
1
1
1
1
1
1
1
1
1
1
1
1
1
1
1
1
1
1
1
1
1
1
1
1
1
1
1
1
1
1
1
1
1
1
1
1
1
1
1
1
1
1
1
1
1
1
1
1
1
1
1
1
1
1
1
1
1
1
1
1
1
1
1
1
1
1
1
1
1
1
1
1
1
1
1
1
1
1
1
1
1
1
1
1
1
1
1
1
1
1
1
1
1
1
1
1
1
1
1
1
1
1
1
1
1
1
1
1
1
1
1
1
1
1
1
1
1
1
1
1
1
1
1
1
1
1
1
1
1
1
1
1
1
1
1
1
1
1
1
1
1
1
1
1
1
1
1
1
1
1
1
1
1
1
1
1
1
1
1
1
1
1
1
1
1
1
1
1
1
1
1
1
1
1
1
1
1
1
1
1
1
1
1
1
1
1
1
1
1
1
1
1
1
1
1
1
1
1
1
1
1
1
1
1
1
1
1
1
1
1
1
1
1
1
1
1
1
1
1
1
1
1
1
1
1
1
1
1
1
1
1
1
1
1
1
1
1
1
1
1
1
1
1
1
1
1
1
1
1
1
1
1
1
1
1
1
1
1
1
1
1
1
1
1
1
1
1
1
1
1
1
1
1
1
1
1
1
1
1
1
1
1
1
1
1
1
1
1
1
1
1
1
1
1
1
1
1
1
1
1
1
1
1
1
1
1
1
1
1
1
1
1
1
1
1
1
1
1
1
1
1
1
1
1
1
1
1
1
1
1
1
1
1
1
1
1
1
1
1
1
1
1
1
1
1
1
1
1
1
1
1
1
1
1
1
1
1
1
1
1
1
1
1
1
1
1
1
1
1
1
1
1
1
1
1
1
1
1
1
1
1
1
1
1
1
1
1
1
1
1
1
1
1
1
1
1
1
1
1
1
1
1
1
1
1
1
1
1
1
1
1
1
1
1
1
1
1
1
1
1
1
1
1
1
1
1
1
1
1
1
1
1
1
1
1
1
1
1
1
1
1
1
1
1
1
1
1
1
1
1
1
1
1
1
1
1
1
1
1
1
1
1
1
1
1
1
1
1
1
1
1
1
1
1
1
1
1
1
1
1
1
1
1
1
1
1
1
1
1
1
1
1
1
1
1
1
1
1
1
1
1
1
1
1
1
1
1
1
1
1
1
1
1
1
1
1
1
1
1
1
1
1
1
1
1
1
1
1
1
1
1
1
1
1
1
1
1
1
1
1
1
1
1
1
1
1
1
1
1
1
1
1
1
1
1
1
1
1
1
1
1
1
1
1
1
1
1
1
1
1
1
1
1
1
1
1
1
1
1
1
1
1
1
1
1
1
1
1
1
1
1
1
1
1
1
1
1
1
1
1
1
1
1
1
1
1
1
1
1
1
1
1
1
1
1
1
1
1
1
1
1
1
1
1
1
1
1
1
1
1
1
1
1
1
1
1
1
1
1
1
1
1
1
1
1
1
1
1
1
1
1
1
1
1
1
1
1
1
1
1
1
1
1
1
1
1
1
1
1
1
1
1
1
1
1
1
1
1
1
1
1
1
1
1
1
1
1
1
1
1
1
1
1
1
1
1
1
1
1
1
1
1
1
1
1
1
1
1
1
1
1
1
1
1
1
1
1
1
1
1
1
1.2644
1.68459
2.20916
2.73229
3.24839
3.87507
4.56837
4.92508
5.20562
5.72077
6.03534
5.9983
5.84671
5.67816
5.43689
5.07272
4.61669
4.23599
4.06071
4.03863
3.98219
3.94925
3.95866
4.02113
4.10791
4.1637
4.16272
4.15233
4.14566
4.1537
4.17734
4.21281
4.23344
4.23491
4.23433
4.23486
4.24059
4.24805
4.25586
4.25869
4.25464
4.24483
4.22627
4.20286
4.18784
4.17571
4.1548
4.12351
4.10249
4.09238
4.07644
4.0396
4.01241
4.00809
4.00498
4.00142
3.9999
3.99932
3.9993
3.99685
3.99064
3.98415
3.98834
3.99068
3.98164
3.97635
3.97667
3.99272
4.00397
4.0025
4.00148
4.00215
4.00249
4.00353
4.00894
4.0153
4.01743
4.01846
4.01766
4.02391
0.999971
0.998979
1.00835
1.07272
1.17814
1.29817
1.5227
1.91403
2.26443
2.63911
3.19468
3.52529
3.84806
4.16401
4.27765
4.51695
4.50954
4.47743
4.49168
4.492
4.43602
4.31809
4.24129
4.23567
4.19076
4.13303
4.11028
4.11407
4.12427
4.13811
4.17007
4.202
4.2087
4.20574
4.19867
4.19932
4.2091
4.22383
4.24441
4.25753
4.25631
4.25179
4.24645
4.23364
4.21103
4.18344
4.14829
4.1075
4.07383
4.05789
4.04375
4.02024
4.00879
4.00682
4.00456
4.00142
3.99973
3.99933
3.99688
3.98884
3.97979
3.97234
3.9714
3.97481
3.97284
3.96965
3.97057
3.987
3.99909
3.99856
3.9989
4.00055
4.00174
4.00341
4.00735
4.01087
4.01318
4.01498
4.01655
4.02579
1
1
1
1
1
1
0.999239
1.00451
1.03248
1.09327
1.26283
1.61267
2.04785
2.77266
3.59374
4.31361
4.61464
4.75183
4.84141
4.83385
4.78564
4.65542
4.50811
4.27911
4.14695
4.10694
4.11161
4.12418
4.13236
4.16142
4.19482
4.22041
4.22079
4.20709
4.18383
4.17544
4.18138
4.19508
4.21792
4.2475
4.26159
4.26541
4.2641
4.25033
4.22498
4.1931
4.15604
4.1158
4.06577
4.04017
4.02801
4.01393
4.00607
4.00429
4.00178
3.9985
3.99735
3.99742
3.99499
3.98972
3.98459
3.9824
3.98022
3.98025
3.97964
3.9765
3.9768
3.9919
4.0007
3.99823
3.999
4.00163
4.00381
4.00653
4.00861
4.0098
4.01083
4.01253
4.0149
4.02693
1
1
1
1
1
1
1
0.999999
1
1
0.999925
1.00033
1.00965
1.0944
1.3865
1.90295
2.73636
3.35319
4.07365
4.35781
4.41838
4.42856
4.37354
4.38577
4.36021
4.33603
4.32071
4.29111
4.24211
4.22221
4.21135
4.20322
4.17479
4.15643
4.15762
4.16578
4.1797
4.19385
4.20612
4.2179
4.22957
4.24048
4.24933
4.25008
4.23599
4.20474
4.16779
4.12867
4.07543
4.03806
4.02048
4.00772
3.99949
3.9965
3.99487
3.99239
3.99041
3.99157
3.99268
3.99108
3.9886
3.9872
3.98472
3.98286
3.98213
3.97885
3.97886
3.99448
4.00198
3.99812
3.99814
4.00157
4.00362
4.00522
4.00727
4.00942
4.01181
4.01432
4.01651
4.02926
1
1
1
1
1
1
1
1
1
1
1
1
1
1
0.999452
1.00519
1.09841
1.34627
1.78793
2.53496
3.22084
4.01474
4.36169
4.47555
4.57
4.5448
4.50647
4.44108
4.34575
4.18249
4.15581
4.191
4.19444
4.17439
4.16805
4.17403
4.18324
4.20246
4.20834
4.20275
4.20146
4.20552
4.21102
4.21784
4.21274
4.19374
4.16728
4.13118
4.07778
4.03962
4.02255
4.01149
4.00387
3.99846
3.99509
3.99236
3.9906
3.99254
3.98994
3.98408
3.98045
3.97869
3.97715
3.98175
3.9779
3.9724
3.97358
3.99442
4.00103
3.99567
3.99733
4.00301
4.00508
4.00564
4.00671
4.00884
4.01137
4.01393
4.01717
4.03186
1
1
1
1
1
1
1
1
1
1
1
1
1
1
1
1
1
0.999621
1.00354
1.07683
1.29496
1.70233
2.455
3.1273
3.88761
4.11552
4.23234
4.24287
4.18653
4.19808
4.22569
4.27888
4.28852
4.26172
4.23871
4.22769
4.2208
4.21381
4.19985
4.18127
4.17868
4.18968
4.19485
4.19537
4.18933
4.16964
4.141
4.10907
4.06993
4.04312
4.03252
4.02571
4.01935
4.01235
4.00457
3.99727
3.99372
3.98868
3.97967
3.97529
3.98075
3.98083
3.97746
3.97933
3.97955
3.97784
3.98195
3.99813
3.99958
3.9941
3.99481
4.00094
4.00333
4.00373
4.00485
4.00689
4.00887
4.0113
4.01612
4.03344
1
1
1
1
1
1
1
1
1
1
1
1
1
1
1
1
1
1
0.999999
1
0.999775
1.00316
1.07249
1.2752
1.68583
2.38331
3.06655
3.85871
4.10894
4.2456
4.36495
4.34989
4.33451
4.30081
4.25956
4.2013
4.19078
4.21071
4.22148
4.22117
4.20776
4.18772
4.18111
4.17255
4.16148
4.14325
4.11183
4.07785
4.05151
4.03642
4.03348
4.03443
4.02818
4.0196
4.00826
3.99475
3.9855
3.97252
3.95944
3.95967
3.97315
3.978
3.9747
3.97171
3.97176
3.97193
3.98384
3.99503
3.99199
3.99164
3.99244
3.99747
4.00044
4.00122
4.00219
4.00408
4.00647
4.00995
4.01494
4.03307
1
1
1
1
1
1
1
1
1
1
1
1
1
1
1
1
1
1
1
1
1
0.999993
1.00003
0.999933
1.00432
1.07871
1.2586
1.68298
2.41936
3.12106
3.82626
3.94633
4.07911
4.1003
4.09139
4.12171
4.18913
4.2501
4.27691
4.27822
4.26763
4.2513
4.229
4.19751
4.1627
4.12725
4.091
4.06398
4.04355
4.02849
4.02099
4.02122
4.01641
4.00724
3.99764
3.9849
3.97027
3.96115
3.95993
3.96927
3.9815
3.98778
3.98336
3.97565
3.97271
3.9761
3.983
3.9795
3.98021
3.98314
3.98362
3.99036
3.99596
3.99865
4.00042
4.00267
4.00545
4.00876
4.01328
4.03245
1
1
1
1
1
1
1
1
1
1
1
1
1
1
1
1
1
1
1
1
1
1
1
1
0.99999
1.00007
1.00008
1.00619
1.09218
1.29176
1.76223
2.4503
3.18367
3.81822
3.97544
4.12112
4.18931
4.23571
4.2736
4.28567
4.2865
4.27432
4.23824
4.21101
4.19209
4.17155
4.14367
4.09598
4.03808
4.01368
4.00101
3.99331
3.99125
3.98793
3.9875
3.98836
3.98227
3.97265
3.96791
3.97662
3.98315
3.98159
3.97227
3.9652
3.96348
3.97417
3.9853
3.9833
3.98594
3.98909
3.98988
3.99415
3.99912
4.0021
4.00485
4.00764
4.01096
4.01416
4.01843
4.0375
1
1
1
1
1
1
1
1
1
1
1
1
1
1
1
1
1
1
1
1
1
1
1
1
1
1
1
1
0.999999
1.00038
1.01224
1.10793
1.3203
1.86441
2.59601
3.40772
3.73956
3.89815
4.03935
4.08614
4.14812
4.21236
4.22966
4.23722
4.23316
4.21113
4.17048
4.12333
4.05158
3.98494
3.96775
3.96338
3.96395
3.9817
4.00104
4.00536
3.99802
3.98478
3.97394
3.97715
3.9782
3.96622
3.95786
3.9562
3.9587
3.9744
3.98523
3.98707
3.98988
3.98905
3.99489
3.99878
4.00231
4.00497
4.0062
4.00846
4.01256
4.01715
4.02115
4.03951
1
1
1
1
1
1
1
1
1
1
1
1
1
1
1
1
1
1
1
1
1
1
1
1
1
1
1
1
1
0.999999
1.00001
1.00001
1.00091
1.02391
1.14912
1.45012
2.05066
2.74992
3.54278
3.81939
3.99756
4.13447
4.1775
4.18761
4.18535
4.17325
4.15222
4.11485
4.06122
4.01197
3.98631
3.97633
3.96885
3.96749
3.9831
3.9883
3.98077
3.96972
3.96081
3.96467
3.97167
3.96666
3.96289
3.96314
3.96537
3.97471
3.98159
3.98625
3.99027
3.98499
3.98813
3.99313
3.99612
3.99937
4.00143
4.00372
4.00791
4.01342
4.01884
4.04003
1
1
1
1
1
1
1
1
1
1
1
1
1
1
1
1
1
1
1
1
1
1
1
1
1
1
1
1
1
1
1
1
0.999999
0.999982
1.00015
1.00319
1.05204
1.19224
1.58539
2.3299
3.10562
3.74796
3.91031
3.97229
3.9894
4.03087
4.06308
4.09441
4.09375
4.07116
4.03204
3.98025
3.95544
3.94478
3.95374
3.95993
3.95501
3.95042
3.95259
3.96179
3.96717
3.9666
3.96836
3.97198
3.96971
3.96821
3.97391
3.98384
3.98677
3.97878
3.98114
3.98607
3.99013
3.99383
3.9966
3.99879
4.00226
4.01027
4.01946
4.04532
1
1
1
1
1
1
1
1
1
1
1
1
1
1
1
1
1
1
1
1
1
1
1
1
1
1
1
1
1
1
1
1
1
0.999999
0.999999
1
1.00001
1.0004
1.01013
1.10129
1.35983
1.92226
2.7252
3.48509
3.81529
3.96459
4.01791
4.06227
4.06526
4.04452
4.00379
3.93926
3.9145
3.91642
3.93526
3.95355
3.96198
3.9662
3.97024
3.97084
3.9597
3.95297
3.95504
3.95874
3.96025
3.95942
3.96529
3.97831
3.98262
3.98545
3.99162
3.99154
3.99522
3.99805
3.9969
3.99781
4.00036
4.00958
4.02496
4.05689
1
1
1
1
1
1
1
1
1
1
1
1
1
1
1
1
1
1
1
1
1
1
1
1
1
1
1
1
1
1
1
1
1
1
1
1
1
0.999999
0.999986
1.00009
1.00326
1.03687
1.20376
1.65319
2.39087
3.19855
3.49085
3.75653
3.89018
3.92573
3.92232
3.89546
3.90458
3.94482
3.97348
3.98099
3.98036
3.97716
3.97087
3.96
3.94331
3.92612
3.92596
3.93589
3.95273
3.95804
3.96457
3.97274
3.97536
3.98152
3.99154
3.99511
3.99967
4.00078
3.99604
3.99337
3.99508
4.00324
4.02212
4.06327
1
1
1
1
1
1
1
1
1
1
1
1
1
1
1
1
1
1
1
1
1
1
1
1
1
1
1
1
1
1
1
1
1
1
1
1
1
1
0.999999
0.999999
1
0.99999
1.00093
1.01683
1.11199
1.43833
2.05394
2.71316
3.19838
3.58071
3.86489
3.87742
3.90704
3.95186
3.95944
3.95715
3.94025
3.93335
3.94447
3.94483
3.926
3.90789
3.90887
3.92068
3.94783
3.97404
3.9819
3.97641
3.9654
3.96925
3.97902
3.99044
3.99655
3.99899
3.99638
3.9939
3.99357
3.99809
4.01657
4.0669
1
1
1
1
1
1
1
1
1
1
1
1
1
1
1
1
1
1
1
1
1
1
1
1
1
1
1
1
1
1
1
1
1
1
1
1
1
1
1
1
1
0.999999
0.999999
0.999986
1.0003
1.00586
1.06377
1.23067
1.69647
2.2635
2.87246
3.28821
3.59216
3.74066
3.81791
3.81689
3.8021
3.8357
3.90338
3.94517
3.9553
3.95105
3.93209
3.9281
3.94256
3.97451
3.98084
3.97186
3.95336
3.95142
3.96436
3.97988
3.98921
3.99242
3.99412
3.99595
3.99592
3.99917
4.01465
4.06803
1
1
1
1
1
1
1
1
1
1
1
1
1
1
1
1
1
1
1
1
1
1
1
1
1
1
1
1
1
1
1
1
1
1
1
1
1
1
1
1
1
1
1
0.999999
0.999999
0.999992
1.00009
1.00167
1.02333
1.1139
1.3633
1.84181
2.35337
2.82186
3.33941
3.65247
3.79187
3.84699
3.90799
3.96775
3.98166
3.97425
3.93615
3.88314
3.88362
3.93092
3.97034
3.96589
3.95041
3.94078
3.94728
3.96571
3.98133
3.98549
3.98698
3.99311
4.00163
4.01202
4.02213
4.07125
1
1
1
1
1
1
1
1
1
1
1
1
1
1
1
1
1
1
1
1
1
1
1
1
1
1
1
1
1
1
1
1
1
1
1
1
1
1
1
1
1
1
1
1
1
0.999999
0.999999
0.999998
1
1.00041
1.00537
1.03609
1.13063
1.40459
1.81001
2.34704
2.99516
3.3884
3.55019
3.68259
3.84015
3.91318
3.91312
3.86066
3.84943
3.88805
3.95739
3.99202
3.99383
3.972
3.94742
3.95129
3.97231
3.99022
3.98838
3.9885
3.99678
4.0101
4.02681
4.08117
1
1
1
1
1
1
1
1
1
1
1
1
1
1
1
1
1
1
1
1
1
1
1
1
1
1
1
1
1
1
1
1
1
1
1
1
1
1
1
1
1
1
1
1
1
1
1
1
1
0.999999
1
1.00003
1.00059
1.00673
1.03553
1.16445
1.42266
1.89315
2.49062
2.95722
3.32819
3.67179
3.90254
3.91331
3.89773
3.91134
3.95099
3.98759
3.99195
3.97347
3.92906
3.92032
3.94652
3.98297
3.98731
3.98321
3.98787
4.00418
4.03967
4.10565
1
1
1
1
1
1
1
1
1
1
1
1
1
1
1
1
1
1
1
1
1
1
1
1
1
1
1
1
1
1
1
1
1
1
1
1
1
1
1
1
1
1
1
1
1
1
1
1
1
1
1
1
0.999999
1
1.00003
1.0011
1.00792
1.05209
1.17098
1.50676
2.04657
2.56231
3.0942
3.65432
3.75572
3.76258
3.78754
3.87336
3.94811
3.95257
3.93306
3.90714
3.92002
3.96394
3.99876
4.00034
3.99468
4.00682
4.05917
4.13447
1
1
1
1
1
1
1
1
1
1
1
1
1
1
1
1
1
1
1
1
1
1
1
1
1
1
1
1
1
1
1
1
1
1
1
1
1
1
1
1
1
1
1
1
1
1
1
1
1
1
1
1
1
1
1
1
0.999997
1.00011
1.00128
1.01424
1.07188
1.26876
1.64454
2.22651
2.80199
3.36092
3.54953
3.71282
3.85304
3.96205
3.97105
3.94768
3.92594
3.9482
3.99996
4.02228
4.01368
4.01398
4.05049
4.13653
1
1
1
1
1
1
1
1
1
1
1
1
1
1
1
1
1
1
1
1
1
1
1
1
1
1
1
1
1
1
1
1
1
1
1
1
1
1
1
1
1
1
1
1
1
1
1
1
1
1
1
1
1
1
1
1
1
1
0.999999
1.00001
1.00025
1.00356
1.02384
1.11752
1.37736
1.78922
2.41948
3.05437
3.33456
3.63267
3.87832
3.93296
3.90104
3.88308
3.93246
4.0196
4.04689
4.03581
4.04902
4.12378
1
1
1
1
1
1
1
1
1
1
1
1
1
1
1
1
1
1
1
1
1
1
1
1
1
1
1
1
1
1
1
1
1
1
1
1
1
1
1
1
1
1
1
1
1
1
1
1
1
1
1
1
1
1
1
1
1
1
1
1
1
1
1.00002
1.00068
1.00728
1.04071
1.19188
1.50982
2.07488
2.68593
3.17157
3.60263
3.86836
3.87166
3.86764
3.93647
4.03578
4.08573
4.09864
4.12587
1
1
1
1
1
1
1
1
1
1
1
1
1
1
1
1
1
1
1
1
1
1
1
1
1
1
1
1
1
1
1
1
1
1
1
1
1
1
1
1
1
1
1
1
1
1
1
1
1
1
1
1
1
1
1
1
1
1
1
1
1
1
1
1
1
1.00009
1.002
1.0156
1.09138
1.30736
1.8055
2.37921
2.96626
3.51348
3.7944
3.81496
3.90182
4.05919
4.10908
4.11826
1
1
1
1
1
1
1
1
1
1
1
1
1
1
1
1
1
1
1
1
1
1
1
1
1
1
1
1
1
1
1
1
1
1
1
1
1
1
1
1
1
1
1
1
1
1
1
1
1
1
1
1
1
1
1
1
1
1
1
1
1
1
1
1
1
1
1
1.00001
1.0005
1.00573
1.04478
1.18383
1.53838
2.10443
2.74065
3.31707
3.62682
3.83699
4.03521
4.1137
1
1
1
1
1
1
1
1
1
1
1
1
1
1
1
1
1
1
1
1
1
1
1
1
1
1
1
1
1
1
1
1
1
1
1
1
1
1
1
1
1
1
1
1
1
1
1
1
1
1
1
1
1
1
1
1
1
1
1
1
1
1
1
1
1
1
1
1
1
0.999999
1.00013
1.00209
1.0186
1.10001
1.34704
1.81358
2.43739
3.05362
3.49261
3.87578
1
1
1
1
1
1
1
1
1
1
1
1
1
1
1
1
1
1
1
1
1
1
1
1
1
1
1
1
1
1
1
1
1
1
1
1
1
1
1
1
1
1
1
1
1
1
1
1
1
1
1
1
1
1
1
1
1
1
1
1
1
1
1
1
1
1
1
1
1
1
1
1
1.00002
1.00064
1.00733
1.04646
1.19257
1.53905
2.00139
2.90165
1
1
1
1
1
1
1
1
1
1
1
1
1
1
1
1
1
1
1
1
1
1
1
1
1
1
1
1
1
1
1
1
1
1
1
1
1
1
1
1
1
1
1
1
1
1
1
1
1
1
1
1
1
1
1
1
1
1
1
1
1
1
1
1
1
1
1
1
1
1
1
1
1
1
1
1.00014
1.00215
1.01706
1.06826
1.47024
1
1
1
1
1
1
1
1
1
1
1
1
1
1
1
1
1
1
1
1
1
1
1
1
1
1
1
1
1
1
1
1
1
1
1
1
1
1
1
1
1
1
1
1
1
1
1
1
1
1
1
1
1
1
1
1
1
1
1
1
1
1
1
1
1
1
1
1
1
1
1
1
1
1
1
1
0.999999
1.00002
1.00026
1.01804
1
1
1
1
1
1
1
1
1
1
1
1
1
1
1
1
1
1
1
1
1
1
1
1
1
1
1
1
1
1
1
1
1
1
1
1
1
1
1
1
1
1
1
1
1
1
1
1
1
1
1
1
1
1
1
1
1
1
1
1
1
1
1
1
1
1
1
1
1
1
1
1
1
1
1
1
1
1
1
1.00006
1
1
1
1
1
1
1
1
1
1
1
1
1
1
1
1
1
1
1
1
1
1
1
1
1
1
1
1
1
1
1
1
1
1
1
1
1
1
1
1
1
1
1
1
1
1
1
1
1
1
1
1
1
1
1
1
1
1
1
1
1
1
1
1
1
1
1
1
1
1
1
1
1
1
1
1
1
1
1
1
1
1
1
1
1
1
1
1
1
1
1
1
1
1
1
1
1
1
1
1
1
1
1
1
1
1
1
1
1
1
1
1
1
1
1
1
1
1
1
1
1
1
1
1
1
1
1
1
1
1
1
1
1
1
1
1
1
1
1
1
1
1
1
1
1
1
1
1
1
1
1
1
1
1
1
1
1
1
1
1
1
1
1
1
1
1
1
1
1
1
1
1
1
1
1
1
1
1
1
1
1
1
1
1
1
1
1
1
1
1
1
1
1
1
1
1
1
1
1
1
1
1
1
1
1
1
1
1
1
1
1
1
1
1
1
1
1
1
1
1
1
1
1
1
1
1
1
1
1
1
1
1
1
1
1
1
1
1
1
1
1
1
1
1
1
1
1
1
1
1
1
1
1
1
1
1
1
1
1
1
1
1
1
1
1
1
1
1
1
1
1
1
1
1
1
1
1
1
1
1
1
1
1
1
1
1
1
1
1
1
1
1
1
1
1
1
1
1
1
1
1
1
1
1
1
1
1
1
1
1
1
1
1
1
1
1
1
1
1
1
1
1
1
1
1
1
1
1
1
1
1
1
1
1
1
1
1
1
1
1
1
1
1
1
1
1
1
1
1
1
1
1
1
1
1
1
1
1
1
1
1
1
1
1
1
1
1
1
1
1
1
1
1
1
1
1
1
1
1
1
1
1
1
1
1
1
1
1
1
1
1
1
1
1
1
1
1
1
1
1
1
1
1
1
1
1
1
1
1
1
1
1
1
1
1
1
1
1
1
1
1
1
1
1
1
1
1
1
1
1
1
1
1
1
1
1
1
1
1
1
1
1
1
1
1
1
1
1
1
1
1
1
1
1
1
1
1
1
1
1
1
1
1
1
1
1
1
1
1
1
1
1
1
1
1
1
1
1
1
1
1
1
1
1
1
1
1
1
1
1
1
1
1
1
1
1
1
1
1
1
1
1
1
1
1
1
1
1
1
1
1
1
1
1
1
1
1
1
1
1
1
1
1
1
1
1
1
1
1
1
1
1
1
1
1
1
1
1
1
1
1
1
1
1
1
1
1
1
1
1
1
1
1
1
1
1
1
1
1
1
1
1
1
1
1
1
1
1
1
1
1
1
1
1
1
1
1
1
1
1
1
1
1
1
1
1
1
1
1
1
1
1
1
1
1
1
1
1
1
1
1
1
1
1
1
1
1
1
1
1
1
1
1
1
1
1
1
1
1
1
1
1
1
1
1
1
1
1
1
1
1
1
1
1
1
1
1
1
1
1
1
1
1
1
1
1
1
1
1
1
1
1
1
1
1
1
1
1
1
1
1
1
1
1
1
1
1
1
1
1
1
1
1
1
1
1
1
1
1
1
1
1
1
1
1
1
1
1
1
1
1
1
1
1
1
1
1
1
1
1
1
1
1
1
1
1
1
1
1
1
1
1
1
1
1
1
1
1
1
1
1
1
1
1
1
1
1
1
1
1
1
1
1
1
1
1
1
1
1
1
1
1
1
1
1
1
1
1
1
1
1
1
1
1
1
1
1
1
1
1
1
1
1
1
1
1
1
1
1
1
1
1
1
1
1
1
1
1
1
1
1
1
1
1
1
1
1
1
1
1
1
1
1
1
1
1
1
1
1
1
)
;

boundaryField
{
    inlet
    {
        type            fixedValue;
        value           uniform 1;
    }
    outlet
    {
        type            zeroGradient;
    }
    bottom
    {
        type            symmetryPlane;
    }
    top
    {
        type            symmetryPlane;
    }
    obstacle
    {
        type            zeroGradient;
    }
    defaultFaces
    {
        type            empty;
    }
}


// ************************************************************************* //
