/*--------------------------------*- C++ -*----------------------------------*\
| =========                 |                                                 |
| \\      /  F ield         | OpenFOAM: The Open Source CFD Toolbox           |
|  \\    /   O peration     | Version:  2206                                  |
|   \\  /    A nd           | Website:  www.openfoam.com                      |
|    \\/     M anipulation  |                                                 |
\*---------------------------------------------------------------------------*/
FoamFile
{
    version     2.0;
    format      ascii;
    arch        "LSB;label=32;scalar=64";
    class       volVectorField;
    location    "0.06";
    object      U;
}
// * * * * * * * * * * * * * * * * * * * * * * * * * * * * * * * * * * * * * //

dimensions      [0 1 -1 0 0 0 0];

internalField   nonuniform List<vector> 
75
(
(5.9899 4.16739e-19 0)
(5.9899 6.25108e-18 0)
(5.9899 1.08819e-14 0)
(5.9899 1.06173e-14 0)
(5.9899 9.66e-15 0)
(5.9899 0 0)
(5.9899 -1.08352e-17 0)
(5.9899 3.6673e-17 0)
(5.9899 7.83469e-17 0)
(5.9899 7.74476e-16 0)
(5.9899 4.16739e-18 0)
(5.9899 1.04185e-17 0)
(5.9899 -1.02122e-14 0)
(5.9899 -9.46163e-15 0)
(5.9899 3.04474e-15 0)
(5.9899 0 0)
(5.9899 1.08352e-17 0)
(5.9899 -7.10539e-16 0)
(5.9899 5.62639e-15 0)
(5.9899 1.9236e-14 0)
(5.9899 -4.16739e-18 0)
(5.9899 -1.04185e-17 0)
(5.9899 1.08352e-17 0)
(5.9899 1.0003e-14 0)
(5.9899 1.16887e-14 0)
(5.96356 0.00919888 0)
(5.91933 0.0497399 0)
(5.86925 0.115191 0)
(5.81375 0.226161 0)
(5.75892 0.325653 0)
(5.69108 0.470605 0)
(5.63462 0.584335 0)
(5.55695 0.777988 0)
(5.53491 0.876448 0)
(5.49121 1.10774 0)
(5.9899 4.37129e-06 0)
(5.9899 1.36177e-05 0)
(5.99316 -0.008141 0)
(5.98328 0.0117421 0)
(5.96076 0.061481 0)
(5.89783 0.217312 0)
(5.82516 0.423006 0)
(5.67228 0.820326 0)
(5.60928 1.10078 0)
(5.41492 1.66394 0)
(5.9899 6.22211e-08 0)
(5.9899 -7.01375e-08 0)
(5.98992 -6.17074e-05 0)
(5.98992 -5.84909e-05 0)
(5.99016 -0.000620295 0)
(5.98969 0.000505724 0)
(5.99096 -0.00269833 0)
(5.984 0.0196489 0)
(5.97126 0.0607418 0)
(5.87316 0.535421 0)
(5.9899 2.96173e-09 0)
(5.9899 2.54196e-09 0)
(5.9899 6.74008e-07 0)
(5.9899 -1.57905e-06 0)
(5.98992 -6.11967e-05 0)
(5.98991 -5.70434e-05 0)
(5.98997 -0.000246746 0)
(5.98994 -0.000162132 0)
(5.99028 -0.00123023 0)
(5.98513 0.0414749 0)
(5.9899 -1.31434e-11 0)
(5.9899 2.54068e-10 0)
(5.9899 7.64385e-08 0)
(5.9899 6.39217e-08 0)
(5.9899 2.39069e-07 0)
(5.9899 -7.45409e-06 0)
(5.9899 -5.96552e-06 0)
(5.98991 -1.80751e-05 0)
(5.98997 -0.000205446 0)
(5.98991 0.000133409 0)
)
;

boundaryField
{
    inlet
    {
        type            fixedValue;
        value           uniform (5.9899 0 0);
    }
    outlet
    {
        type            zeroGradient;
    }
    bottom
    {
        type            symmetryPlane;
    }
    top
    {
        type            symmetryPlane;
    }
    obstacle
    {
        type            slip;
    }
    defaultFaces
    {
        type            empty;
    }
}


// ************************************************************************* //
