/*--------------------------------*- C++ -*----------------------------------*\
| =========                 |                                                 |
| \\      /  F ield         | OpenFOAM: The Open Source CFD Toolbox           |
|  \\    /   O peration     | Version:  2206                                  |
|   \\  /    A nd           | Website:  www.openfoam.com                      |
|    \\/     M anipulation  |                                                 |
\*---------------------------------------------------------------------------*/
FoamFile
{
    version     2.0;
    format      ascii;
    arch        "LSB;label=32;scalar=64";
    class       volScalarField;
    location    "0.14";
    object      p;
}
// * * * * * * * * * * * * * * * * * * * * * * * * * * * * * * * * * * * * * //

dimensions      [1 -1 -2 0 0 0 0];

internalField   nonuniform List<scalar> 
4800
(
1
1
1
1
1
1
1
1
1
1
1
1
1
1
1
1
1
1
1
1
1
1
1
1
1
1
1
1
1
1
1
1
1
1
1
1
1
1
1
1
1
1
1
1
1
1
1
1
1
1
1
1
1
1
1
1
1
1
1
1
1
1
1
1
1
1
1
1
1
1
1
1
1
1
1
1
1
1
1
1
1
1
1
1
1
1
1
1
1
1
1
1
1
1
1
1
1
1
1
1
1
1
1
1
1
1
1
1
1
1
1
1
1
1
1
1
1
1
1
1
1
1
1
1
1
1
1
1
1
1
1
1
1
1
1
1
1
1
1
1
1
1
1
1
1
1
1
1
1
1
1
1
1
1
1
1
1
1
1
1
1
1
1
1
1
1
1
1
1
1
1
1
1
1
1
1
1
1
1
1
1
1
1
1
1
1
1
1
1
1
1
1
1
1
1
1
1
1
1
1
1
1
1
1
1
1
1
1
1
1
1
1
1
1
1
1
1
1
1
1
1
1
1
1
1
1
1
1
1
1
1
1
1
1
1
1
1
1
1
1
1
1
1
1
1
1
1
1
1
1
1
1
1
1
1
1
1
1
1
1
1
1
1
1
1
1
1
1
1
1
1
1
1
1
1
1
1
1
1
1
1
1
1
1
1
1
1
1
1
1
1
1
1
1
1
1
1
1
1
1
1
1
1
1
1
1
1
1
1
1
1
1
1
1
1
1
1
1
1
1
1
1
1
1
1
1
1
1
1
1
1
1
1
1
1
1
1
1
1
1
1
1
1
1
1
1
1
1
1
1
1
1
1
1
1
1
1
1
1
1
1
1
1
1
1
1
1
1
1
1
1
1
1
1
1
1
1
1
1
1
1
1
1
1
1
1
1
1
1
1
1
1
1
1
1
1
1
1
1
1
1
1
1
1
1
1
1
1
1
1
1
1
1
1
1
1
1
1
1
1
1
1
1
1
1
1
1
1
1
1
1
1
1
1
1
1
1
1
1
1
1
1
1
1
1
1
1
1
1
1
1
1
1
1
1
1
1
1
1
1
1
1
1
1
1
1
1
1
1
1
1
1
1
1
1
1
1
1
1
1
1
1
1
1
1
1
1
1
1
1
1
1
1
1
1
1
1
1
1
1
1
1
1
1
1
1
1
1
1
1
1
1
1
1
1
1
1
1
1
1
1
1
1
1
1
1
1
1
1
1
1
1
1
1
1
1
1
1
1
1
1
1
1
1
1
1
1
1
1
1
1
1
1
1
1
1
1
1
1
1
1
1
1
1
1
1
1
1
1
1
1
1
1
1
1
1
1
1
1
1
1
1
1
1
1
1
1
1
1
1
1
1
1
1
1
1
1
1
1
1
1
1
1
1
1
1
1
1
1
1
1
1
1
1
1
1
1
1
1
1
1
1
1
1
1
1
1
1
1
1
1
1
1
1
1
1
1
1
1
1
1
1
1
1
1
1
1
1
1
1
1
1
1
1
1
1
1
1
1
1
1
1
1
1
1
1
1
1
1
1
1
1
1
1
1
1
1
1
1
1
1
1
1
1
1
1
1
1
1
1
1
1
1
1
1
1
1
1
1
1
1
1
1
1
1
1
1
1
1
1
1
1
1
1
1
1
1
1
1
1
1
1
1
1
1
1
1
1
1
1
1
1
1
1
1
1
1
1
1
1
1
1
1
1
1
1
1
1
1
1
1
1
1
1
1
1
1
1
1
1
1
1
1
1
1
1
1
1
1
1
1
1
1
1
1
1
1
1
1
1
1
1
1
1
1
1
1
1
1
1
1
1
1
1
1
1
1
1
1
1
1
1
1
1
1
1
1
1
1
1
1
1
1
1
1
1
1
1
1
1
1
1
1
1
1
1
1
1
1
1
1
1
1
1
1
1
1
1
1
1
1
1
1
1
1
1
1
1
1
1
1
1
1
1
1
1
1
1
1
1
1
1
1
1
1
1
1
1
1
1
1
1
1
1
1
1
1
1
1
1
1
1
1
1
1
1
1
1
1
1
1
1
1
1
1
1
1
1
1
1
1
1
1
1
1
1
1
1
1
1
1
1
1
1
1
1
1
1
1
1
1
1
1
1
1
1
1
1
1
1
1
1
1
1
1
1
1
1
1
1
1
1
1
1
1
1
1
1
1
1
1
1
1
1
1
1
1
1
1
1
1
1
1
1
1
1
1
1
1
1
1
1
1
1
1
1
1
1
1
1
1
1
1
1
1
1
1
1
1
1
1
1
1
1
1
1
1
1
1
1
1
1
1
1
1
1
1
1
1
1
1
1
1
1
1
1
1
1
1
1
1
1
1
1
1
1
1
1
1
1
1
1
1
1
1
1
1
1
1
1
1
1
1
1
1
1
1
1
1
1
1
1
1
1
1
1
1
1
1
1
1
1
1
1
1
1
1
1
1
1
1
1
1
1
1
1
1
1
1
1
1
1
1
1
1
1
1
1
1
1
1
1
1
1
1
1
1
1
1
1
1
1
1
1
1
1
1
1
1
1
1
1
1
1
1
1
1
1
1
1
1
1
1
1
1
1
1
1
1
1
1
1
1
1
1
1
1
1
1
1
1
1
1
1
1
1
1
1
1
1
1
1
1
1
1
1
1
1
1
1
1
1
1
1
1
1
1
1
1
1
1
1
1
1
1
1
1
1
1
1
1
1
1
1
1
1
1
1
1
1
1
1
1
1
1
1
1
1
1
1
1
1
1
1
1
1
1
1
1
1
1
1
1
1
1
1
1
1
1
1
1
1
1
1
1
1
1
1
1
1
1
1
1
1
1
1
1
1
1
1
1
1
1
1
1
1
1
1
1
1
1
1
1
1
1
1
1
1
1
1
1
1
1
1
1
1
1
1
1
1
1
1
1
1
1
1
1
1
1
1
1
1
1
1
1
1
1
1
1
1
1
1
1
1
1
1
1
1
1
1
1
1
1
1
1
1
1
1
1
1
1
1
1
1
1
1
1
1
1
1
1
1
1
1
1
1
1
1
1
1
1
1
1
1
1
1
1
1
1
1
1
1
1
1
1
1
1
1
1
1
1
1
1
1
1
1
1
1
1
1
1
1
1
1
1
1
1
1
1
1
1
1
1
1
1
1
1
1
1
1
1
1
1
1
1
1
1
1
1
1
1
1
1
1
1
1
1
1
1
1
1
1
1
1
1
1
1
1
1
1
1
1
1
1
1
1
1
1
1
1
1
1
1
1
1
1
1
1
1
1
1
1
1
1
1
1
1
1
1
1
1
1
1
1
1
1
1
1
1
1
1
1
1
1
1
1
1
1
1
1
1
1
1
1
1
1
1
1
1
1
1
1
1
1
1
1
1
1
1
1
1
1
1
1
1
1
1
1
1
1
1
1
1
1
1
1
1
1
1
1
1
1
1
1
1
1
1
1
1
1
1
1
1
1
1
1
1
1
1
1
1
1
1
1
1
1
1
1
1
1
1
1
1
1
1
1
1
1
1
1
1
1
1
1
1
1
1
1
1
1
1
1
1
1
1
1
1
1
1
1
1
1
1
1
1
1
1
1
1
1
1
1
1
1
1
1
1
1
1
1
1
1
1
1
1
1
1
1
1
1
1
1
1
1
1
1
1
1
1
1
1.27302
1.69352
2.21357
2.67354
3.15507
3.62635
3.92693
4.18828
4.23846
4.1535
3.93115
3.60952
3.2987
3.18029
3.11821
3.0579
3.03818
3.05289
3.08125
3.1155
3.15122
3.15813
3.15493
3.15077
3.15255
3.16177
3.17408
3.18075
3.18096
3.17719
3.17349
3.17251
3.1735
3.17439
3.17506
3.17702
3.1795
3.1834
3.18969
3.19537
3.1974
3.1969
3.19432
3.19037
3.18731
3.18591
3.1851
3.18393
3.18266
3.18197
3.18199
3.18269
3.18415
3.18619
3.1878
3.18809
3.18787
3.18749
3.18721
3.18684
3.18622
3.18516
3.18353
3.18228
3.18125
3.17956
3.17685
3.17309
3.16705
3.15657
3.14173
3.12551
3.10925
3.09131
3.07131
3.05418
3.04387
3.03706
3.03378
3.02648
1.00551
1.02948
1.08914
1.24216
1.43481
1.73424
2.08825
2.4593
2.80711
3.079
3.22186
3.33982
3.36817
3.33582
3.30744
3.2761
3.22008
3.17281
3.14509
3.12535
3.12509
3.1328
3.13643
3.14677
3.161
3.17073
3.17312
3.17459
3.17586
3.17654
3.17622
3.17746
3.17811
3.17782
3.17522
3.17337
3.17399
3.17648
3.17972
3.18261
3.18432
3.18481
3.18447
3.18429
3.18465
3.18494
3.18509
3.18489
3.18477
3.18488
3.18534
3.18629
3.18744
3.18831
3.18882
3.18892
3.18879
3.18875
3.1888
3.18864
3.18821
3.1874
3.18628
3.18504
3.18358
3.18134
3.17806
3.17331
3.1658
3.15428
3.13941
3.12299
3.10545
3.08596
3.06613
3.0508
3.042
3.03586
3.03179
3.0239
1
1.00001
1.00019
1.00198
1.00835
1.03434
1.10747
1.28063
1.61037
2.15159
2.83736
3.20227
3.50961
3.53844
3.51704
3.47687
3.3931
3.23536
3.12476
3.1159
3.1141
3.12344
3.14104
3.15083
3.1598
3.16557
3.16603
3.16755
3.17324
3.18065
3.18629
3.18941
3.18999
3.18898
3.18407
3.17769
3.17506
3.17442
3.17429
3.17535
3.17549
3.17525
3.17612
3.17758
3.1788
3.17981
3.18126
3.18278
3.18382
3.18465
3.18533
3.18615
3.18693
3.18755
3.18824
3.18909
3.18951
3.18985
3.1902
3.19028
3.18997
3.18905
3.18794
3.1869
3.1853
3.18275
3.17903
3.17369
3.16551
3.15346
3.13846
3.1217
3.10377
3.08435
3.06492
3.05016
3.04168
3.03564
3.03155
3.02381
1
1
1
1
1
1.00002
1.00032
1.00259
1.01711
1.09691
1.36192
1.87832
2.51639
3.06274
3.2183
3.3226
3.29057
3.29045
3.26359
3.24784
3.2158
3.18911
3.1647
3.1335
3.12305
3.12717
3.13912
3.15133
3.16668
3.18237
3.19175
3.19535
3.19558
3.19483
3.19093
3.18435
3.18156
3.18059
3.18089
3.17966
3.17879
3.17791
3.17802
3.17978
3.18087
3.18159
3.18239
3.18291
3.18336
3.18385
3.18444
3.18492
3.18512
3.18483
3.18446
3.18467
3.18538
3.1861
3.18693
3.18788
3.18859
3.18853
3.18819
3.18756
3.18613
3.18331
3.17903
3.17314
3.16412
3.15128
3.13564
3.11883
3.10164
3.0826
3.06387
3.04984
3.04141
3.03535
3.03116
3.02347
1
1
1
1
1
1
1
1
0.999996
1.00022
1.00415
1.05011
1.20204
1.62707
2.21292
2.8145
3.20229
3.32774
3.38597
3.36762
3.33409
3.27855
3.18819
3.11626
3.10771
3.11725
3.13175
3.13981
3.14834
3.15842
3.17175
3.18228
3.18603
3.18713
3.18816
3.18776
3.18814
3.18824
3.189
3.18826
3.18711
3.18605
3.18437
3.18496
3.18627
3.1873
3.18764
3.18718
3.18729
3.18744
3.18766
3.18763
3.18712
3.18594
3.18462
3.18368
3.18374
3.18416
3.18478
3.18562
3.18627
3.18636
3.18592
3.18507
3.1836
3.1808
3.1763
3.17005
3.16072
3.14783
3.13217
3.11541
3.0985
3.07957
3.06173
3.04878
3.04011
3.03443
3.0305
3.02287
1
1
1
1
1
1
1
1
0.999999
0.999999
0.999996
1.00005
1.00124
1.01842
1.13336
1.39795
1.96621
2.51185
3.05706
3.20018
3.22449
3.25843
3.24399
3.18348
3.16681
3.16558
3.15682
3.15095
3.14257
3.13768
3.14198
3.14868
3.15609
3.164
3.17041
3.17618
3.18024
3.18426
3.18902
3.19121
3.19043
3.18895
3.18634
3.18574
3.18662
3.1879
3.18951
3.19016
3.19038
3.19057
3.19044
3.19005
3.18913
3.18758
3.18573
3.18386
3.18319
3.18355
3.18438
3.18544
3.18629
3.18652
3.18583
3.18474
3.1829
3.17978
3.17491
3.16802
3.15808
3.1452
3.1295
3.1126
3.09565
3.07657
3.05988
3.04793
3.03862
3.03332
3.02985
3.0224
1
1
1
1
1
1
1
1
1
1
1
1
1
0.999998
1.00063
1.00652
1.06975
1.28508
1.71255
2.28785
2.78113
3.1687
3.25936
3.26922
3.25807
3.2361
3.1991
3.17598
3.15522
3.14262
3.13629
3.13477
3.13592
3.14484
3.15566
3.16325
3.16911
3.17238
3.17562
3.17928
3.1805
3.18113
3.18075
3.18027
3.18022
3.18087
3.18339
3.18537
3.18599
3.18709
3.18825
3.18902
3.18886
3.18775
3.18681
3.18646
3.18642
3.18676
3.18731
3.18771
3.1882
3.18844
3.18769
3.1864
3.18424
3.18075
3.17556
3.16834
3.15802
3.14482
3.12881
3.11184
3.09432
3.07473
3.05916
3.04698
3.03725
3.03223
3.02922
3.02189
1
1
1
1
1
1
1
1
1
1
1
1
1
1
1
0.999995
1.0002
1.0037
1.02914
1.19714
1.53693
2.09904
2.57776
2.97385
3.19252
3.20958
3.21545
3.22296
3.2136
3.1962
3.1844
3.17116
3.15996
3.15263
3.15129
3.15664
3.16511
3.17008
3.17291
3.17502
3.17424
3.17299
3.17293
3.17284
3.17184
3.17118
3.17232
3.17517
3.17898
3.18267
3.18529
3.18661
3.18738
3.18811
3.18849
3.18916
3.18985
3.19028
3.19065
3.19081
3.1907
3.19003
3.18888
3.18723
3.18479
3.1811
3.17568
3.16807
3.15757
3.14452
3.12862
3.11191
3.09356
3.07363
3.05864
3.04537
3.03623
3.03187
3.02917
3.02167
1
1
1
1
1
1
1
1
1
1
1
1
1
1
1
1
1
0.999997
1.00003
1.00206
1.01744
1.1111
1.43601
1.93633
2.47572
2.8101
3.10815
3.19166
3.21262
3.21823
3.2193
3.2038
3.18733
3.17821
3.17287
3.17566
3.18503
3.19285
3.1932
3.19006
3.18188
3.17658
3.17653
3.17641
3.17459
3.17173
3.17116
3.17273
3.17754
3.18235
3.18428
3.18462
3.18455
3.18502
3.18586
3.18684
3.18783
3.18864
3.18948
3.19018
3.18981
3.18862
3.18702
3.18512
3.18278
3.17934
3.17425
3.16674
3.15634
3.14341
3.12765
3.11136
3.09267
3.07324
3.05805
3.04344
3.0352
3.03149
3.02907
3.02137
1
1
1
1
1
1
1
1
1
1
1
1
1
1
1
1
1
1
1
0.999999
1.00001
1.00076
1.01292
1.07107
1.32568
1.77279
2.36913
2.73639
2.96561
3.07135
3.12833
3.17516
3.19201
3.19227
3.18152
3.17793
3.18151
3.18883
3.19303
3.19577
3.19608
3.19287
3.19126
3.19195
3.19156
3.1877
3.1848
3.18378
3.18397
3.18596
3.1864
3.18595
3.18447
3.18368
3.18339
3.18369
3.18462
3.18563
3.18669
3.18723
3.18671
3.18546
3.18393
3.18231
3.18015
3.17676
3.17198
3.16488
3.15476
3.14174
3.12581
3.10985
3.09086
3.07192
3.05629
3.04118
3.03442
3.03138
3.02928
3.02131
1
1
1
1
1
1
1
1
1
1
1
1
1
1
1
1
1
1
1
1
1
0.999999
1.00001
1.00031
1.00753
1.05289
1.2227
1.6769
2.27327
2.7638
2.91893
3.04578
3.1128
3.13386
3.13983
3.13163
3.13469
3.15259
3.16825
3.17652
3.18198
3.18425
3.18785
3.19193
3.19371
3.19244
3.1915
3.19262
3.19387
3.19401
3.19396
3.19331
3.19087
3.18866
3.18637
3.18451
3.18519
3.1861
3.18662
3.18639
3.18559
3.18432
3.18311
3.18168
3.17944
3.17589
3.17103
3.16405
3.15402
3.14069
3.12386
3.10694
3.08796
3.06967
3.05323
3.03892
3.03345
3.03097
3.02929
3.0211
1
1
1
1
1
1
1
1
1
1
1
1
1
1
1
1
1
1
1
1
1
1
1
1
1
1.0002
1.00369
1.04733
1.19269
1.59512
2.13834
2.73868
3.00512
3.0621
3.12932
3.11313
3.12007
3.13056
3.13668
3.14567
3.15166
3.15515
3.16044
3.16492
3.17017
3.17997
3.18764
3.19032
3.19167
3.19106
3.19051
3.19036
3.18956
3.18889
3.18746
3.18641
3.18754
3.18891
3.18927
3.18884
3.18788
3.18643
3.18452
3.18206
3.17905
3.17556
3.17102
3.16372
3.15335
3.13985
3.1234
3.10651
3.08705
3.06848
3.05193
3.03695
3.03155
3.02923
3.02734
3.01883
1
1
1
1
1
1
1
1
1
1
1
1
1
1
1
1
1
1
1
1
1
1
1
1
1
1
0.999998
1.00021
1.00282
1.03595
1.17309
1.52741
2.08326
2.64988
3.01763
3.10305
3.16435
3.1755
3.16074
3.15543
3.15415
3.15016
3.14873
3.14993
3.15357
3.16232
3.17201
3.17657
3.17886
3.17968
3.18019
3.1822
3.18344
3.1832
3.18279
3.18354
3.18541
3.18731
3.18852
3.18864
3.18847
3.18832
3.18744
3.18487
3.18102
3.17701
3.17225
3.1647
3.15388
3.13955
3.12284
3.10516
3.08511
3.06708
3.05036
3.03649
3.03235
3.03086
3.02842
3.01893
1
1
1
1
1
1
1
1
1
1
1
1
1
1
1
1
1
1
1
1
1
1
1
1
1
1
1
1
0.999998
1.00015
1.00253
1.02549
1.17149
1.51283
2.07645
2.61937
3.00395
3.13884
3.18194
3.20016
3.19631
3.19191
3.18597
3.1789
3.1735
3.17202
3.17426
3.17707
3.17792
3.17712
3.1772
3.1779
3.17761
3.17643
3.17669
3.17896
3.18186
3.18456
3.18609
3.18651
3.18698
3.18767
3.18756
3.18544
3.18145
3.17708
3.17204
3.16436
3.15362
3.13882
3.12171
3.10417
3.08405
3.06669
3.04959
3.03562
3.03227
3.03095
3.02801
3.01731
1
1
1
1
1
1
1
1
1
1
1
1
1
1
1
1
1
1
1
1
1
1
1
1
1
1
1
1
1
1
0.999999
1.00009
1.00289
1.02476
1.1828
1.55297
2.09958
2.58685
2.97504
3.13652
3.1689
3.18765
3.20089
3.19979
3.19715
3.19533
3.1943
3.19588
3.19703
3.19513
3.19215
3.18825
3.18452
3.18134
3.17976
3.18132
3.18399
3.18628
3.1874
3.18768
3.18812
3.18855
3.18789
3.18548
3.18161
3.17719
3.17178
3.16375
3.15285
3.13757
3.12022
3.10198
3.0817
3.06521
3.04985
3.03535
3.03151
3.02999
3.02717
3.01667
1
1
1
1
1
1
1
1
1
1
1
1
1
1
1
1
1
1
1
1
1
1
1
1
1
1
1
1
1
1
1
1
0.999999
1.00009
1.00381
1.0289
1.17897
1.59879
2.21503
2.64384
2.92339
3.06568
3.15076
3.16437
3.17256
3.18965
3.19444
3.19411
3.19547
3.1963
3.19559
3.19359
3.19074
3.187
3.18617
3.18772
3.18969
3.19031
3.19027
3.19018
3.19022
3.19014
3.18883
3.18612
3.18235
3.17782
3.17185
3.16338
3.1523
3.13654
3.11872
3.0999
3.0798
3.06415
3.05057
3.03686
3.031
3.02855
3.02514
3.01427
1
1
1
1
1
1
1
1
1
1
1
1
1
1
1
1
1
1
1
1
1
1
1
1
1
1
1
1
1
1
1
1
1
1
1
1.00012
1.00422
1.04024
1.2059
1.66831
2.34835
2.79483
2.96896
3.07275
3.10132
3.14293
3.14991
3.1525
3.16152
3.17075
3.17599
3.17836
3.18039
3.18343
3.18444
3.18547
3.18685
3.18738
3.18735
3.18751
3.18832
3.18898
3.18762
3.18464
3.18088
3.17628
3.17022
3.16209
3.15148
3.13563
3.11757
3.09843
3.07872
3.06318
3.05043
3.03905
3.03154
3.02757
3.02324
3.01161
1
1
1
1
1
1
1
1
1
1
1
1
1
1
1
1
1
1
1
1
1
1
1
1
1
1
1
1
1
1
1
1
1
1
1
1
1
1.00025
1.00538
1.06223
1.277
1.79243
2.4348
2.94457
3.08848
3.14515
3.14158
3.14306
3.15422
3.1607
3.16323
3.16503
3.16808
3.17165
3.175
3.17912
3.18322
3.18431
3.1844
3.18477
3.1859
3.18639
3.18454
3.18155
3.17822
3.17402
3.1683
3.16068
3.15029
3.1344
3.11619
3.09692
3.0775
3.06108
3.0485
3.03964
3.03269
3.02714
3.02186
3.00923
1
1
1
1
1
1
1
1
1
1
1
1
1
1
1
1
1
1
1
1
1
1
1
1
1
1
1
1
1
1
1
1
1
1
1
1
1
1
1.00001
1.00067
1.00921
1.09777
1.37382
1.96219
2.61019
3.00418
3.15369
3.17933
3.20276
3.20072
3.19658
3.18769
3.18132
3.17984
3.18064
3.18356
3.18613
3.18656
3.18623
3.1853
3.18473
3.18405
3.18216
3.1804
3.17856
3.17493
3.16905
3.16129
3.15043
3.13373
3.11517
3.09606
3.07704
3.05982
3.0463
3.03779
3.03241
3.02702
3.02236
3.00995
1
1
1
1
1
1
1
1
1
1
1
1
1
1
1
1
1
1
1
1
1
1
1
1
1
1
1
1
1
1
1
1
1
1
1
1
1
1
1
0.999999
1.00003
1.00162
1.01727
1.15967
1.56214
2.17371
2.70522
3.04557
3.15844
3.18898
3.19642
3.20313
3.19756
3.19271
3.19195
3.19182
3.19201
3.19176
3.1904
3.18832
3.18655
3.1845
3.18263
3.18177
3.18072
3.17706
3.17059
3.1627
3.15195
3.13513
3.11635
3.09757
3.07873
3.0608
3.04559
3.03577
3.03157
3.02753
3.02409
3.0134
1
1
1
1
1
1
1
1
1
1
1
1
1
1
1
1
1
1
1
1
1
1
1
1
1
1
1
1
1
1
1
1
1
1
1
1
1
1
1
1
1
1
1.00009
1.00431
1.03848
1.25969
1.81257
2.49521
2.84131
3.00754
3.0982
3.16163
3.16583
3.16778
3.17366
3.17953
3.18426
3.1864
3.18621
3.1866
3.18631
3.18447
3.18237
3.18156
3.1808
3.17762
3.17174
3.16468
3.15427
3.13727
3.11808
3.09941
3.08068
3.06224
3.04484
3.0324
3.02772
3.02536
3.02301
3.01465
1
1
1
1
1
1
1
1
1
1
1
1
1
1
1
1
1
1
1
1
1
1
1
1
1
1
1
1
1
1
1
1
1
1
1
1
1
1
1
1
1
1
1
1.00001
1.00037
1.01191
1.09489
1.43009
2.08164
2.7805
3.03091
3.11077
3.13344
3.14253
3.15751
3.16905
3.17572
3.17885
3.17936
3.18047
3.18171
3.18138
3.1797
3.17866
3.1784
3.17671
3.17186
3.16488
3.15399
3.13704
3.11747
3.09815
3.07998
3.06257
3.04326
3.0287
3.0241
3.02214
3.01988
3.01191
1
1
1
1
1
1
1
1
1
1
1
1
1
1
1
1
1
1
1
1
1
1
1
1
1
1
1
1
1
1
1
1
1
1
1
1
1
1
1
1
1
1
1
1
1
1.00007
1.00167
1.0309
1.20619
1.71346
2.424
2.94456
3.15689
3.17398
3.19528
3.20395
3.20222
3.1961
3.18667
3.18398
3.18463
3.18418
3.18179
3.17928
3.17829
3.1767
3.17186
3.16449
3.15328
3.13607
3.1161
3.0962
3.07837
3.06316
3.04462
3.02569
3.02036
3.01782
3.01504
3.00885
1
1
1
1
1
1
1
1
1
1
1
1
1
1
1
1
1
1
1
1
1
1
1
1
1
1
1
1
1
1
1
1
1
1
1
1
1
1
1
1
1
1
1
1
1
1
1
1.00037
1.00702
1.08807
1.44635
2.08789
2.68473
3.02337
3.16468
3.19621
3.19537
3.1958
3.18951
3.18931
3.1908
3.18998
3.18646
3.18214
3.18025
3.17753
3.17205
3.16328
3.15105
3.13394
3.11328
3.09266
3.076
3.0622
3.04774
3.02947
3.01744
3.01365
3.0105
3.00385
1
1
1
1
1
1
1
1
1
1
1
1
1
1
1
1
1
1
1
1
1
1
1
1
1
1
1
1
1
1
1
1
1
1
1
1
1
1
1
1
1
1
1
1
1
1
1
1
1.00003
1.00221
1.02992
1.22422
1.8148
2.57349
2.91429
3.05718
3.12444
3.14159
3.15754
3.17503
3.18304
3.18507
3.18419
3.18226
3.18042
3.17733
3.17065
3.16056
3.14776
3.13128
3.10985
3.08755
3.07176
3.0598
3.04718
3.03466
3.02324
3.01461
3.00861
3.00098
1
1
1
1
1
1
1
1
1
1
1
1
1
1
1
1
1
1
1
1
1
1
1
1
1
1
1
1
1
1
1
1
1
1
1
1
1
1
1
1
1
1
1
1
1
1
1
1
1
1.00001
1.00033
1.01177
1.11311
1.53353
2.25635
2.89235
3.12835
3.13846
3.16441
3.17473
3.17664
3.18154
3.18284
3.18228
3.1809
3.17707
3.17006
3.15963
3.14613
3.13009
3.10972
3.08557
3.06596
3.05551
3.04513
3.03466
3.02672
3.01905
3.01176
3.0013
1
1
1
1
1
1
1
1
1
1
1
1
1
1
1
1
1
1
1
1
1
1
1
1
1
1
1
1
1
1
1
1
1
1
1
1
1
1
1
1
1
1
1
1
1
1
1
1
1
1
1
1.00011
1.00304
1.05612
1.32855
1.97193
2.67928
3.04698
3.19087
3.20238
3.19999
3.19674
3.1896
3.18733
3.18481
3.17949
3.17242
3.16257
3.14923
3.13356
3.11283
3.08755
3.0641
3.0511
3.04171
3.03375
3.02623
3.01858
3.01144
3.00264
1
1
1
1
1
1
1
1
1
1
1
1
1
1
1
1
1
1
1
1
1
1
1
1
1
1
1
1
1
1
1
1
1
1
1
1
1
1
1
1
1
1
1
1
1
1
1
1
1
1
1
1
1.00001
1.0013
1.0196
1.19592
1.79674
2.54871
2.89534
3.06062
3.15534
3.16903
3.17495
3.17977
3.18094
3.1772
3.17202
3.1646
3.1531
3.13795
3.11839
3.09562
3.06935
3.04966
3.03886
3.03067
3.02291
3.01599
3.0094
3.00137
1
1
1
1
1
1
1
1
1
1
1
1
1
1
1
1
1
1
1
1
1
1
1
1
1
1
1
1
1
1
1
1
1
1
1
1
1
1
1
1
1
1
1
1
1
1
1
1
1
1
1
1
1
1
1.00023
1.01095
1.11123
1.57874
2.32448
2.94236
3.15011
3.15732
3.17396
3.17318
3.17081
3.17189
3.17244
3.16645
3.15309
3.1379
3.11987
3.0983
3.07807
3.06054
3.04493
3.03056
3.01924
3.01125
3.00438
2.99654
1
1
1
1
1
1
1
1
1
1
1
1
1
1
1
1
1
1
1
1
1
1
1
1
1
1
1
1
1
1
1
1
1
1
1
1
1
1
1
1
1
1
1
1
1
1
1
1
1
1
1
1
1
1
1
1.00013
1.00364
1.07563
1.40373
2.13367
2.80192
3.11445
3.20218
3.18559
3.18145
3.18599
3.18686
3.17785
3.1556
3.12976
3.11121
3.09507
3.07806
3.06246
3.04937
3.03666
3.02327
3.01145
3.00115
2.99238
1
1
1
1
1
1
1
1
1
1
1
1
1
1
1
1
1
1
1
1
1
1
1
1
1
1
1
1
1
1
1
1
1
1
1
1
1
1
1
1
1
1
1
1
1
1
1
1
1
1
1
1
1
1
1
1
1.00003
1.00254
1.03411
1.30015
2.05015
2.80374
2.98656
3.05746
3.13561
3.17664
3.18399
3.18314
3.16126
3.12525
3.09863
3.07997
3.06352
3.05273
3.04444
3.03567
3.02254
3.0105
3.00355
2.99998
1
1
1
1
1
1
1
1
1
1
1
1
1
1
1
1
1
1
1
1
1
1
1
1
1
1
1
1
1
1
1
1
1
1
1
1
1
1
1
1
1
1
1
1
1
1
1
1
1
1
1
1
1
1
1
1
1
1.00002
1.00073
1.02589
1.22181
1.89667
2.62701
3.07271
3.18351
3.18615
3.18493
3.18421
3.16886
3.13994
3.11022
3.08274
3.05996
3.04512
3.03473
3.02276
3.01041
3.00468
3.00116
3.09259
1
1
1
1
1
1
1
1
1
1
1
1
1
1
1
1
1
1
1
1
1
1
1
1
1
1
1
1
1
1
1
1
1
1
1
1
1
1
1
1
1
1
1
1
1
1
1
1
1
1
1
1
1
1
1
1
1
1
1
1.00057
1.01375
1.19077
1.72597
2.53438
2.95774
3.13654
3.16922
3.17739
3.17369
3.15636
3.1341
3.1083
3.08022
3.05765
3.03883
3.01366
2.99611
2.99224
3.00287
3.67994
1
1
1
1
1
1
1
1
1
1
1
1
1
1
1
1
1
1
1
1
1
1
1
1
1
1
1
1
1
1
1
1
1
1
1
1
1
1
1
1
1
1
1
1
1
1
1
1
1
1
1
1
1
1
1
1
1
1
1
1
1.00025
1.01154
1.12043
1.62577
2.59482
2.99922
3.03117
3.06484
3.10574
3.12156
3.11965
3.11458
3.09801
3.0748
3.05549
3.02809
2.99915
3.04412
3.39193
5.22447
1
1
1
1
1
1
1
1
1
1
1
1
1
1
1
1
1
1
1
1
1
1
1
1
1
1
1
1
1
1
1
1
1
1
1
1
1
1
1
1
1
1
1
1
1
1
1
1
1
1
1
1
1
1
1
1
1
1
1
1
1
1.00017
1.00653
1.0971
1.62662
2.5014
2.97814
3.11048
3.12335
3.11187
3.09688
3.07523
3.05645
3.04707
3.04536
3.03789
3.11757
3.82625
5.20125
6.63938
1
1
1
1
1
1
1
1
1
1
1
1
1
1
1
1
1
1
1
1
1
1
1
1
1
1
1
1
1
1
1
1
1
1
1
1
1
1
1
1
1
1
1
1
1
1
1
1
1
1
1
1
1
1
1
1
1
1
1
1
1
1
1.0001
1.00504
1.10192
1.57913
2.39986
2.95323
3.15148
3.16546
3.14924
3.09145
3.02913
3.00859
3.01726
3.202
4.11557
5.80767
7.04142
7.31363
1
1
1
1
1
1
1
1
1
1
1
1
1
1
1
1
1
1
1
1
1
1
1
1
1
1
1
1
1
1
1
1
1
1
1
1
1
1
1
1
1
1
1
1
1
1
1
1
1
1
1
1
1
1
1
1
1
1
1
1
1
1
1
1.00009
1.00512
1.09114
1.54107
2.29364
2.87619
3.14842
3.15865
3.14439
3.08198
3.09672
3.48508
4.59832
6.31331
6.93741
7.19188
7.30749
1
1
1
1
1
1
1
1
1
1
1
1
1
1
1
1
1
1
1
1
1
1
1
1
1
1
1
1
1
1
1
1
1
1
1
1
1
1
1
1
1
1
1
1
1
1
1
1
1
1
1
1
1
1
1
1
1
1
1
1
1
1
1
1
1.00009
1.00449
1.07294
1.50562
2.30317
2.88234
3.07015
3.15199
3.34933
3.95845
5.42268
6.73245
7.48467
7.44246
7.30422
7.2261
1
1
1
1
1
1
1
1
1
1
1
1
1
1
1
1
1
1
1
1
1
1
1
1
1
1
1
1
1
1
1
1
1
1
1
1
1
1
1
1
1
1
1
1
1
1
1
1
1
1
1
1
1
1
1
1
1
1
1
1
1
1
1
1
1
1.00006
1.004
1.07029
1.53415
2.40869
2.87081
3.59408
4.50026
5.78061
6.5385
7.19442
7.55602
7.46107
7.29427
7.16889
1
1
1
1
1
1
1
1
1
1
1
1
1
1
1
1
1
1
1
1
1
1
1
1
1
1
1
1
1
1
1
1
1
1
1
1
1
1
1
1
1
1
1
1
1
1
1
1
1
1
1
1
1
1
1
1
1
1
1
1
1
1
1
1
1
1
1.00009
1.00395
1.09779
1.66145
3.17156
5.00864
6.87744
8.16799
8.088
7.78507
7.55922
7.40624
7.25272
7.14374
)
;

boundaryField
{
    inlet
    {
        type            fixedValue;
        value           uniform 1;
    }
    outlet
    {
        type            zeroGradient;
    }
    bottom
    {
        type            symmetryPlane;
    }
    top
    {
        type            symmetryPlane;
    }
    obstacle
    {
        type            zeroGradient;
    }
    defaultFaces
    {
        type            empty;
    }
}


// ************************************************************************* //
