/*--------------------------------*- C++ -*----------------------------------*\
| =========                 |                                                 |
| \\      /  F ield         | OpenFOAM: The Open Source CFD Toolbox           |
|  \\    /   O peration     | Version:  2206                                  |
|   \\  /    A nd           | Website:  www.openfoam.com                      |
|    \\/     M anipulation  |                                                 |
\*---------------------------------------------------------------------------*/
FoamFile
{
    version     2.0;
    format      ascii;
    arch        "LSB;label=32;scalar=64";
    class       volVectorField;
    location    "0.04";
    object      U;
}
// * * * * * * * * * * * * * * * * * * * * * * * * * * * * * * * * * * * * * //

dimensions      [0 1 -1 0 0 0 0];

internalField   nonuniform List<vector> 
75
(
(4.57576 -4.53953e-15 0)
(4.57576 -4.46285e-15 0)
(4.57576 -2.44209e-16 0)
(4.57576 4.54245e-17 0)
(4.57576 3.30057e-16 0)
(4.57576 -6.66365e-16 0)
(4.57576 -7.17249e-15 0)
(4.57576 -7.12248e-15 0)
(4.57576 -6.89202e-15 0)
(4.57576 -5.15982e-15 0)
(4.57576 -1.31614e-14 0)
(4.57576 -1.20383e-14 0)
(4.57576 -1.48788e-14 0)
(4.57576 -1.36082e-14 0)
(4.57576 -4.59218e-15 0)
(4.57576 -4.04361e-15 0)
(4.57576 2.62545e-17 0)
(4.57576 3.62354e-15 0)
(4.57576 6.86369e-15 0)
(4.57576 1.28103e-14 0)
(4.57576 1.3599e-14 0)
(4.57576 1.26859e-14 0)
(4.57576 1.5231e-14 0)
(4.57576 2.02868e-14 0)
(4.57576 1.84278e-14 0)
(4.53766 0.0134158 0)
(4.48019 0.0566072 0)
(4.41688 0.138241 0)
(4.36155 0.249519 0)
(4.33701 0.359265 0)
(4.3447 0.45028 0)
(4.36577 0.520922 0)
(4.37955 0.585169 0)
(4.37925 0.64018 0)
(4.37365 0.721342 0)
(4.57561 -0.000108942 0)
(4.57232 0.00489671 0)
(4.55712 0.0347458 0)
(4.52165 0.116753 0)
(4.47637 0.251891 0)
(4.44163 0.405212 0)
(4.42538 0.538648 0)
(4.40328 0.676175 0)
(4.38837 0.785362 0)
(4.33727 1.00769 0)
(4.57576 -1.01414e-05 0)
(4.57576 -8.53361e-06 0)
(4.57581 -0.00012374 0)
(4.57573 0.000231299 0)
(4.57487 0.00200937 0)
(4.5731 0.00861622 0)
(4.57217 0.0168197 0)
(4.56966 0.034163 0)
(4.56744 0.0542958 0)
(4.562 0.142574 0)
(4.57576 4.74927e-08 0)
(4.57576 -6.67539e-07 0)
(4.57576 -2.16424e-05 0)
(4.57576 -1.18564e-05 0)
(4.57576 -1.60121e-05 0)
(4.57575 3.36126e-05 0)
(4.57575 -3.17508e-05 0)
(4.57572 0.000312281 0)
(4.5757 -9.40552e-05 0)
(4.57549 0.00349263 0)
(4.57576 9.40895e-09 0)
(4.57576 2.33947e-09 0)
(4.57576 -7.28178e-09 0)
(4.57576 -9.91437e-07 0)
(4.57576 -1.82372e-06 0)
(4.57576 -6.4902e-07 0)
(4.57576 -3.09691e-06 0)
(4.57576 -9.93987e-07 0)
(4.57576 -1.62959e-05 0)
(4.57576 -1.90268e-06 0)
)
;

boundaryField
{
    inlet
    {
        type            fixedValue;
        value           uniform (4.57576 0 0);
    }
    outlet
    {
        type            zeroGradient;
    }
    bottom
    {
        type            symmetryPlane;
    }
    top
    {
        type            symmetryPlane;
    }
    obstacle
    {
        type            slip;
    }
    defaultFaces
    {
        type            empty;
    }
}


// ************************************************************************* //
