/*--------------------------------*- C++ -*----------------------------------*\
| =========                 |                                                 |
| \\      /  F ield         | OpenFOAM: The Open Source CFD Toolbox           |
|  \\    /   O peration     | Version:  2206                                  |
|   \\  /    A nd           | Website:  www.openfoam.com                      |
|    \\/     M anipulation  |                                                 |
\*---------------------------------------------------------------------------*/
FoamFile
{
    version     2.0;
    format      ascii;
    arch        "LSB;label=32;scalar=64";
    class       volScalarField;
    location    "0.16";
    object      rho;
}
// * * * * * * * * * * * * * * * * * * * * * * * * * * * * * * * * * * * * * //

dimensions      [1 -3 0 0 0 0 0];

internalField   nonuniform List<scalar> 
4800
(
1.40001
1.40001
1.40001
1.40001
1.40001
1.40001
1.40001
1.40001
1.40001
1.40001
1.40001
1.40001
1.40001
1.40001
1.40001
1.40001
1.40001
1.40001
1.40001
1.40001
1.40001
1.40001
1.40001
1.40001
1.40001
1.40001
1.40001
1.40001
1.40001
1.40001
1.40001
1.40001
1.40001
1.40001
1.40001
1.40001
1.40001
1.40001
1.40001
1.40001
1.40001
1.40001
1.40001
1.40001
1.40001
1.40001
1.40001
1.40001
1.40001
1.40001
1.40001
1.40001
1.40001
1.40001
1.40001
1.40001
1.40001
1.40001
1.40001
1.40001
1.40001
1.40001
1.40001
1.40001
1.40001
1.40001
1.40001
1.40001
1.40001
1.40001
1.40001
1.40001
1.40001
1.40001
1.40001
1.40001
1.40001
1.40001
1.40001
1.40001
1.40001
1.40001
1.40001
1.40001
1.40001
1.40001
1.40001
1.40001
1.40001
1.40001
1.40001
1.40001
1.40001
1.40001
1.40001
1.40001
1.40001
1.40001
1.40001
1.40001
1.40001
1.40001
1.40001
1.40001
1.40001
1.40001
1.40001
1.40001
1.40001
1.40001
1.40001
1.40001
1.40001
1.40001
1.40001
1.40001
1.40001
1.40001
1.40001
1.40001
1.40001
1.40001
1.40001
1.40001
1.40001
1.40001
1.40001
1.40001
1.40001
1.40001
1.40001
1.40001
1.40001
1.40001
1.40001
1.40001
1.40001
1.40001
1.40001
1.40001
1.40001
1.40001
1.40001
1.40001
1.40001
1.40001
1.40001
1.40001
1.40001
1.40001
1.40001
1.40001
1.40001
1.40001
1.40001
1.40001
1.40001
1.40001
1.40001
1.40001
1.40001
1.40001
1.40001
1.40001
1.40001
1.40001
1.40001
1.40001
1.40001
1.40001
1.40001
1.40001
1.40001
1.40001
1.40001
1.40001
1.40001
1.40001
1.40001
1.40001
1.40001
1.40001
1.40001
1.40001
1.40001
1.40001
1.40001
1.40001
1.40001
1.40001
1.40001
1.40001
1.40001
1.40001
1.40001
1.40001
1.40001
1.40001
1.40001
1.40001
1.40001
1.40001
1.40001
1.40001
1.40001
1.40001
1.40001
1.40001
1.40001
1.40001
1.40001
1.40001
1.40001
1.40001
1.40001
1.40001
1.40001
1.40001
1.40001
1.40001
1.40001
1.40001
1.40001
1.40001
1.40001
1.40001
1.40001
1.40001
1.40001
1.40001
1.40001
1.40001
1.40001
1.40001
1.40001
1.40001
1.40001
1.40001
1.40001
1.40001
1.40001
1.40001
1.40001
1.40001
1.40001
1.40001
1.40001
1.40001
1.40001
1.40001
1.40001
1.40001
1.40001
1.40001
1.40001
1.40001
1.40001
1.40001
1.40001
1.40001
1.40001
1.40001
1.40001
1.40001
1.40001
1.40001
1.40001
1.40001
1.40001
1.40001
1.40001
1.40001
1.40001
1.40001
1.40001
1.40001
1.40001
1.40001
1.40001
1.40001
1.40001
1.40001
1.40001
1.40001
1.40001
1.40001
1.40001
1.40001
1.40001
1.40001
1.40001
1.40001
1.40001
1.40001
1.40001
1.40001
1.40001
1.40001
1.40001
1.40001
1.40001
1.40001
1.40001
1.40001
1.40001
1.40001
1.40001
1.40001
1.40001
1.40001
1.40001
1.40001
1.40001
1.40001
1.40001
1.40001
1.40001
1.40001
1.40001
1.40001
1.40001
1.40001
1.40001
1.40001
1.40001
1.40001
1.40001
1.40001
1.40001
1.40001
1.40001
1.40001
1.40001
1.40001
1.40001
1.40001
1.40001
1.40001
1.40001
1.40001
1.40001
1.40001
1.40001
1.40001
1.40001
1.40001
1.40001
1.40001
1.40001
1.40001
1.40001
1.40001
1.40001
1.40001
1.40001
1.40001
1.40001
1.40001
1.40001
1.40001
1.40001
1.40001
1.40001
1.40001
1.40001
1.40001
1.40001
1.40001
1.40001
1.40001
1.40001
1.40001
1.40001
1.40001
1.40001
1.40001
1.40001
1.40001
1.40001
1.40001
1.40001
1.40001
1.40001
1.40001
1.40001
1.40001
1.40001
1.40001
1.40001
1.40001
1.40001
1.40001
1.40001
1.40001
1.40001
1.40001
1.40001
1.40001
1.40001
1.40001
1.40001
1.40001
1.40001
1.40001
1.40001
1.40001
1.40001
1.40001
1.40001
1.40001
1.40001
1.40001
1.40001
1.40001
1.40001
1.40001
1.40001
1.40001
1.40001
1.40001
1.40001
1.40001
1.40001
1.40001
1.40001
1.40001
1.40001
1.40001
1.40001
1.40001
1.40001
1.40001
1.40001
1.40001
1.40001
1.40001
1.40001
1.40001
1.40001
1.40001
1.40001
1.40001
1.40001
1.40001
1.40001
1.40001
1.40001
1.40001
1.40001
1.40001
1.40001
1.40001
1.40001
1.40001
1.40001
1.40001
1.40001
1.40001
1.40001
1.40001
1.40001
1.40001
1.40001
1.40001
1.40001
1.40001
1.40001
1.40001
1.40001
1.40001
1.40001
1.40001
1.40001
1.40001
1.40001
1.40001
1.40001
1.40001
1.40001
1.40001
1.40001
1.40001
1.40001
1.40001
1.40001
1.40001
1.40001
1.40001
1.40001
1.40001
1.40001
1.40001
1.40001
1.40001
1.40001
1.40001
1.40001
1.40001
1.40001
1.40001
1.40001
1.40001
1.40001
1.40001
1.40001
1.40001
1.40001
1.40001
1.40001
1.40001
1.40001
1.40001
1.40001
1.40001
1.40001
1.40001
1.40001
1.40001
1.40001
1.40001
1.40001
1.40001
1.40001
1.40001
1.40001
1.40001
1.40001
1.40001
1.40001
1.40001
1.40001
1.40001
1.40001
1.40001
1.40001
1.40001
1.40001
1.40001
1.40001
1.40001
1.40001
1.40001
1.40001
1.40001
1.40001
1.40001
1.40001
1.40001
1.40001
1.40001
1.40001
1.40001
1.40001
1.40001
1.40001
1.40001
1.40001
1.40001
1.40001
1.40001
1.40001
1.40001
1.40001
1.40001
1.40001
1.40001
1.40001
1.40001
1.40001
1.40001
1.40001
1.40001
1.40001
1.40001
1.40001
1.40001
1.40001
1.40001
1.40001
1.40001
1.40001
1.40001
1.40001
1.40001
1.40001
1.40001
1.40001
1.40001
1.40001
1.40001
1.40001
1.40001
1.40001
1.40001
1.40001
1.40001
1.40001
1.40001
1.40001
1.40001
1.40001
1.40001
1.40001
1.40001
1.40001
1.40001
1.40001
1.40001
1.40001
1.40001
1.40001
1.40001
1.40001
1.40001
1.40001
1.40001
1.40001
1.40001
1.40001
1.40001
1.40001
1.40001
1.40001
1.40001
1.40001
1.40001
1.40001
1.40001
1.40001
1.40001
1.40001
1.40001
1.40001
1.40001
1.40001
1.40001
1.40001
1.40001
1.40001
1.40001
1.40001
1.40001
1.40001
1.40001
1.40001
1.40001
1.40001
1.40001
1.40001
1.40001
1.40001
1.40001
1.40001
1.40001
1.40001
1.40001
1.40001
1.40001
1.40001
1.40001
1.40001
1.40001
1.40001
1.40001
1.40001
1.40001
1.40001
1.40001
1.40001
1.40001
1.40001
1.40001
1.40001
1.40001
1.40001
1.40001
1.40001
1.40001
1.40001
1.40001
1.40001
1.40001
1.40001
1.40001
1.40001
1.40001
1.40001
1.40001
1.40001
1.40001
1.40001
1.40001
1.40001
1.40001
1.40001
1.40001
1.40001
1.40001
1.40001
1.40001
1.40001
1.40001
1.40001
1.40001
1.40001
1.40001
1.40001
1.40001
1.40001
1.40001
1.40001
1.40001
1.40001
1.40001
1.40001
1.40001
1.40001
1.40001
1.40001
1.40001
1.40001
1.40001
1.40001
1.40001
1.40001
1.40001
1.40001
1.40001
1.40001
1.40001
1.40001
1.40001
1.40001
1.40001
1.40001
1.40001
1.40001
1.40001
1.40001
1.40001
1.40001
1.40001
1.40001
1.40001
1.40001
1.40001
1.40001
1.40001
1.40001
1.40001
1.40001
1.40001
1.40001
1.40001
1.40001
1.40001
1.40001
1.40001
1.40001
1.40001
1.40001
1.40001
1.40001
1.40001
1.40001
1.40001
1.40001
1.40001
1.40001
1.40001
1.40001
1.40001
1.40001
1.40001
1.40001
1.40001
1.40001
1.40001
1.40001
1.40001
1.40001
1.40001
1.40001
1.40001
1.40001
1.40001
1.40001
1.40001
1.40001
1.40001
1.40001
1.40001
1.40001
1.40001
1.40001
1.40001
1.40001
1.40001
1.40001
1.40001
1.40001
1.40001
1.40001
1.40001
1.40001
1.40001
1.40001
1.40001
1.40001
1.40001
1.40001
1.40001
1.40001
1.40001
1.40001
1.40001
1.40001
1.40001
1.40001
1.40001
1.40001
1.40001
1.40001
1.40001
1.40001
1.40001
1.40001
1.40001
1.40001
1.40001
1.40001
1.40001
1.40001
1.40001
1.40001
1.40001
1.40001
1.40001
1.40001
1.40001
1.40001
1.40001
1.40001
1.40001
1.40001
1.40001
1.40001
1.40001
1.40001
1.40001
1.40001
1.40001
1.40001
1.40001
1.40001
1.40001
1.40001
1.40001
1.40001
1.40001
1.40001
1.40001
1.40001
1.40001
1.40001
1.40001
1.40001
1.40001
1.40001
1.40001
1.40001
1.40001
1.40001
1.40001
1.40001
1.40001
1.40001
1.40001
1.40001
1.40001
1.40001
1.40001
1.40001
1.40001
1.40001
1.40001
1.40001
1.40001
1.40001
1.40001
1.40001
1.40001
1.40001
1.40001
1.40001
1.40001
1.40001
1.40001
1.40001
1.40001
1.40001
1.40001
1.40001
1.40001
1.40001
1.40001
1.40001
1.40001
1.40001
1.40001
1.40001
1.40001
1.40001
1.40001
1.40001
1.40001
1.40001
1.40001
1.40001
1.40001
1.40001
1.40001
1.40001
1.40001
1.40001
1.40001
1.40001
1.40001
1.40001
1.40001
1.40001
1.40001
1.40001
1.40001
1.40001
1.40001
1.40001
1.40001
1.40001
1.40001
1.40001
1.40001
1.40001
1.40001
1.40001
1.40001
1.40001
1.40001
1.40001
1.40001
1.40001
1.40001
1.40001
1.40001
1.40001
1.40001
1.40001
1.40001
1.40001
1.40001
1.40001
1.40001
1.40001
1.40001
1.40001
1.40001
1.40001
1.40001
1.40001
1.40001
1.40001
1.40001
1.40001
1.40001
1.40001
1.40001
1.40001
1.40001
1.40001
1.40001
1.40001
1.40001
1.40001
1.40001
1.40001
1.40001
1.40001
1.40001
1.40001
1.40001
1.40001
1.40001
1.40001
1.40001
1.40001
1.40001
1.40001
1.40001
1.40001
1.40001
1.40001
1.40001
1.40001
1.40001
1.40001
1.40001
1.40001
1.40001
1.40001
1.40001
1.40001
1.40001
1.40001
1.40001
1.40001
1.40001
1.40001
1.40001
1.40001
1.40001
1.40001
1.40001
1.40001
1.40001
1.40001
1.40001
1.40001
1.40001
1.40001
1.40001
1.40001
1.40001
1.40001
1.40001
1.40001
1.40001
1.40001
1.40001
1.40001
1.40001
1.40001
1.40001
1.40001
1.40001
1.40001
1.40001
1.40001
1.40001
1.40001
1.40001
1.40001
1.40001
1.40001
1.40001
1.40001
1.40001
1.40001
1.40001
1.40001
1.40001
1.40001
1.40001
1.40001
1.40001
1.40001
1.40001
1.40001
1.40001
1.40001
1.40001
1.40001
1.40001
1.40001
1.40001
1.40001
1.40001
1.40001
1.40001
1.40001
1.40001
1.40001
1.40001
1.40001
1.40001
1.40001
1.40001
1.40001
1.40001
1.40001
1.40001
1.40001
1.40001
1.40001
1.40001
1.40001
1.40001
1.40001
1.40001
1.40001
1.40001
1.40001
1.40001
1.40001
1.40001
1.40001
1.40001
1.40001
1.40001
1.40001
1.40001
1.40001
1.40001
1.40001
1.40001
1.40001
1.40001
1.40001
1.40001
1.40001
1.40001
1.40001
1.40001
1.40001
1.40001
1.40001
1.40001
1.40001
1.40001
1.40001
1.40001
1.40001
1.40001
1.40001
1.40001
1.40001
1.40001
1.40001
1.40001
1.40001
1.40001
1.40001
1.40001
1.40001
1.40001
1.40001
1.40001
1.40001
1.40001
1.40001
1.40001
1.40001
1.40001
1.40001
1.40001
1.40001
1.40001
1.40001
1.40001
1.40001
1.40001
1.40001
1.40001
1.40001
1.40001
1.40001
1.40001
1.40001
1.40001
1.40001
1.40001
1.40001
1.40001
1.40001
1.40001
1.40001
1.40001
1.40001
1.40001
1.40001
1.40001
1.40001
1.40001
1.40001
1.40001
1.40001
1.40001
1.40001
1.40001
1.40001
1.40001
1.40001
1.40001
1.40001
1.40001
1.40001
1.40001
1.40001
1.40001
1.40001
1.40001
1.40001
1.40001
1.40001
1.40001
1.40001
1.40001
1.40001
1.40001
1.40001
1.40001
1.40001
1.40001
1.40001
1.40001
1.40001
1.40001
1.40001
1.40001
1.40001
1.40001
1.40001
1.40001
1.40001
1.40001
1.40001
1.40001
1.40001
1.40001
1.40001
1.40001
1.40001
1.40001
1.40001
1.40001
1.40001
1.40001
1.40001
1.40001
1.40001
1.40001
1.40001
1.40001
1.40001
1.40001
1.40001
1.40001
1.40001
1.40001
1.40001
1.40001
1.40001
1.40001
1.40001
1.40001
1.40001
1.40001
1.40001
1.40001
1.40001
1.40001
1.40001
1.40001
1.40001
1.40001
1.40001
1.40001
1.40001
1.40001
1.40001
1.40001
1.40001
1.40001
1.40001
1.40001
1.40001
1.40001
1.40001
1.40001
1.40001
1.40001
1.40001
1.40001
1.40001
1.40001
1.40001
1.40001
1.40001
1.40001
1.40001
1.40001
1.40001
1.40001
1.40001
1.40001
1.40001
1.40001
1.40001
1.40001
1.40001
1.40001
1.40001
1.40001
1.40001
1.40001
1.40001
1.40001
1.40001
1.40001
1.40001
1.40001
1.40001
1.40001
1.40001
1.40001
1.40001
1.40001
1.40001
1.40001
1.40001
1.40001
1.40001
1.40001
1.40001
1.40001
1.40001
1.40001
1.40001
1.40001
1.40001
1.40001
1.40001
1.40001
1.40001
1.40001
1.40001
1.40001
1.40001
1.40001
1.40001
1.40001
1.40001
1.40001
1.40001
1.40001
1.40001
1.40001
1.40001
1.40001
1.40001
1.40001
1.40001
1.40001
1.40001
1.40001
1.40001
1.40001
1.40001
1.40001
1.40001
1.40001
1.40001
1.40001
1.40001
1.40001
1.40001
1.40001
1.40001
1.40001
1.40001
1.40001
1.40001
1.40001
1.40001
1.40001
1.40001
1.40001
1.40001
1.40001
1.40001
1.40001
1.40001
1.40001
1.40001
1.40001
1.40001
1.40001
1.40001
1.40001
1.40001
1.40001
1.40001
1.40001
1.40001
1.40001
1.40001
1.40001
1.40001
1.40001
1.40001
1.40001
1.40001
1.40001
1.40001
1.40001
1.40001
1.40001
1.40001
1.40001
1.40001
1.40001
1.40001
1.40001
1.40001
1.40001
1.40001
1.40001
1.40001
1.40001
1.40001
1.40001
1.40001
1.40001
1.40001
1.40001
1.40001
1.40001
1.40001
1.40001
1.40001
1.40001
1.40001
1.40001
1.40001
1.40001
1.40001
1.40001
1.40001
1.40001
1.40001
1.40001
1.40001
1.40001
1.40001
1.40001
1.40001
1.40001
1.40001
1.40001
1.40001
1.40001
1.40001
1.40001
1.40001
1.40001
1.40001
1.40001
1.40001
1.40001
1.40001
1.40001
1.40001
1.40001
1.40001
1.40001
1.40001
1.40001
1.40001
1.40001
1.40001
1.40001
1.40001
1.40001
1.40001
1.40001
1.40001
1.40001
1.40001
1.40001
1.40001
1.40001
1.40001
1.40001
1.40001
1.40001
1.40001
1.40001
1.40001
1.40001
1.40001
1.40001
1.40001
1.40001
1.40001
1.40001
1.40001
1.40001
1.40001
1.40001
1.40001
1.40001
1.40001
1.40001
1.40001
1.40001
1.40001
1.40001
1.40001
1.40001
1.40001
1.40001
1.40001
1.40001
1.40001
1.40001
1.40001
1.40001
1.40001
1.40001
1.40001
1.40001
1.40001
1.40001
1.40001
1.40001
1.40001
1.40001
1.40001
1.40001
1.40001
1.40001
1.40001
1.40001
1.40001
1.40001
1.40001
1.40001
1.40001
1.40001
1.40001
1.40001
1.40001
1.40001
1.40001
1.40001
1.40001
1.40001
1.40001
1.40001
1.40001
1.40001
1.40001
1.40001
1.40001
1.40001
1.40001
1.40001
1.40001
1.40001
1.40001
1.40001
1.40001
1.40001
1.40001
1.40001
1.40001
1.40001
1.40001
1.40001
1.40001
1.40001
1.40001
1.40001
1.40001
1.40001
1.40001
1.40001
1.40001
1.40001
1.40001
1.40001
1.40001
1.40001
1.40001
1.40001
1.40001
1.40001
1.40001
1.40001
1.40001
1.40001
1.40001
1.40001
1.40001
1.40001
1.40001
1.40001
1.40001
1.40001
1.40001
1.40001
1.65402
2.02629
2.44352
2.82158
3.15546
3.53132
3.8956
4.07822
4.20476
4.42872
4.528
4.496
4.37131
4.15256
3.92746
3.7415
3.62154
3.48926
3.38976
3.3833
3.37859
3.37848
3.38766
3.41174
3.45313
3.49101
3.50933
3.51073
3.50357
3.49506
3.49851
3.51153
3.52228
3.5265
3.52428
3.51579
3.50246
3.49278
3.49289
3.49599
3.5021
3.51307
3.52393
3.52942
3.53189
3.53289
3.53067
3.52165
3.51112
3.50234
3.49838
3.49774
3.49846
3.50029
3.50133
3.50239
3.50527
3.51072
3.51551
3.51972
3.52473
3.53016
3.53286
3.53303
3.53136
3.52646
3.51928
3.51405
3.5125
3.51212
3.51202
3.513
3.51367
3.51289
3.51057
3.50744
3.50579
3.50582
3.50713
3.51405
1.39984
1.40088
1.41783
1.48446
1.59082
1.71127
1.9162
2.22047
2.50555
2.7942
3.15661
3.36245
3.52383
3.56452
3.66568
3.75722
3.74177
3.67451
3.60958
3.59645
3.5695
3.51515
3.47538
3.45972
3.4468
3.44364
3.45012
3.46167
3.4668
3.47165
3.48271
3.49988
3.51145
3.51334
3.51105
3.50594
3.50003
3.49541
3.49568
3.49754
3.49769
3.49704
3.49972
3.5064
3.51189
3.51514
3.51496
3.51084
3.50895
3.50969
3.51123
3.51291
3.51338
3.5124
3.51009
3.50716
3.50418
3.50205
3.50209
3.50289
3.50517
3.50981
3.51607
3.51983
3.52042
3.51944
3.51634
3.51462
3.51501
3.51623
3.51856
3.52069
3.52084
3.52002
3.51764
3.51314
3.50905
3.50833
3.50895
3.51144
1.40001
1.40001
1.40001
1.4
1.40001
1.39958
1.40141
1.4156
1.4682
1.56278
1.77268
2.12047
2.54964
3.09787
3.45837
3.74578
3.84406
3.81633
3.77367
3.74266
3.70534
3.63443
3.52511
3.45389
3.40687
3.40529
3.41219
3.42408
3.43296
3.43571
3.44354
3.45649
3.47118
3.48328
3.48772
3.48793
3.48874
3.48992
3.4928
3.49319
3.49015
3.48243
3.47681
3.47703
3.47887
3.47994
3.48188
3.48637
3.49373
3.50063
3.50611
3.50996
3.51144
3.5117
3.51132
3.50909
3.5035
3.49591
3.49093
3.49002
3.49019
3.49102
3.4935
3.49739
3.4999
3.50172
3.50392
3.50589
3.508
3.51113
3.51534
3.51913
3.51992
3.51972
3.51838
3.51484
3.50999
3.50799
3.50813
3.50853
1.40001
1.40001
1.40001
1.40001
1.40001
1.40001
1.40001
1.40001
1.40001
1.39985
1.39996
1.41062
1.45652
1.64731
2.00641
2.47566
2.99803
3.25431
3.48801
3.56863
3.56544
3.57297
3.59436
3.5768
3.52609
3.48669
3.46272
3.44414
3.41857
3.38095
3.37673
3.38227
3.39881
3.42399
3.44548
3.4562
3.46645
3.47558
3.47761
3.47717
3.47299
3.46503
3.45885
3.45705
3.45789
3.4579
3.45609
3.45553
3.46003
3.4697
3.48106
3.4909
3.49802
3.50135
3.50146
3.49965
3.49372
3.48571
3.48099
3.47896
3.47845
3.47885
3.48158
3.48303
3.48336
3.48341
3.484
3.48556
3.48846
3.49319
3.50068
3.50862
3.51211
3.5128
3.51244
3.50943
3.50455
3.50222
3.50198
3.50198
1.40001
1.40001
1.40001
1.40001
1.40001
1.40001
1.40001
1.40001
1.40001
1.40001
1.40001
1.4
1.40001
1.39985
1.40794
1.45016
1.64573
2.0141
2.45789
2.93401
3.22687
3.50418
3.61948
3.61267
3.60574
3.5846
3.5497
3.48403
3.41884
3.37084
3.36589
3.36911
3.38167
3.39609
3.40599
3.41424
3.42486
3.43368
3.44282
3.44909
3.4518
3.45226
3.44941
3.45012
3.45126
3.45051
3.44599
3.44092
3.43982
3.44279
3.44796
3.45273
3.45806
3.46468
3.47029
3.47312
3.47371
3.47136
3.46919
3.4691
3.47028
3.47322
3.47483
3.47509
3.47512
3.4738
3.47147
3.47129
3.4727
3.47529
3.47949
3.48571
3.49026
3.49121
3.49144
3.49096
3.48888
3.48765
3.48782
3.4898
1.40001
1.40001
1.40001
1.40001
1.40001
1.40001
1.40001
1.40001
1.40001
1.40001
1.40001
1.40001
1.40001
1.4
1.4
1.39994
1.4001
1.41017
1.45623
1.66826
2.03645
2.48883
2.91164
3.17744
3.4183
3.46216
3.47223
3.49295
3.48767
3.45842
3.43806
3.43424
3.42787
3.41594
3.39871
3.37662
3.37549
3.38013
3.39329
3.41196
3.42883
3.44191
3.45083
3.45862
3.46233
3.4619
3.45739
3.44585
3.43462
3.43314
3.43253
3.43159
3.4315
3.43401
3.43882
3.44401
3.44913
3.45352
3.45682
3.45965
3.46325
3.46784
3.47071
3.47157
3.47144
3.46948
3.46488
3.46198
3.46214
3.46295
3.46453
3.4681
3.47161
3.47208
3.47188
3.47094
3.46954
3.46922
3.46954
3.47346
1.40001
1.40001
1.40001
1.40001
1.40001
1.40001
1.40001
1.40001
1.40001
1.40001
1.40001
1.40001
1.40001
1.40001
1.40001
1.4
1.4
1.40001
1.39994
1.40055
1.41344
1.46832
1.69834
2.05769
2.53997
2.9286
3.20328
3.45024
3.49646
3.51239
3.51062
3.49976
3.47734
3.44855
3.41443
3.37906
3.36984
3.37124
3.37785
3.38917
3.40146
3.41849
3.44027
3.45793
3.46413
3.46426
3.46187
3.45801
3.4492
3.43504
3.42927
3.42655
3.42495
3.42515
3.42791
3.43107
3.43394
3.43724
3.44095
3.4454
3.45113
3.45843
3.46508
3.46767
3.46714
3.46326
3.45577
3.45152
3.45121
3.45129
3.45184
3.4555
3.4586
3.45877
3.4585
3.45714
3.45548
3.45525
3.45588
3.46061
1.40001
1.40001
1.40001
1.40001
1.40001
1.40001
1.40001
1.40001
1.40001
1.40001
1.40001
1.40001
1.40001
1.40001
1.40001
1.40001
1.40001
1.40001
1.4
1.4
1.40001
1.39994
1.40139
1.41571
1.48729
1.76129
2.12036
2.60758
2.94111
3.21308
3.40389
3.42203
3.44391
3.46889
3.46909
3.44974
3.43485
3.42258
3.40503
3.3964
3.39687
3.39926
3.40775
3.42266
3.43838
3.45179
3.45829
3.45924
3.45843
3.45748
3.45653
3.45347
3.44827
3.44189
3.43674
3.43537
3.43566
3.43535
3.43569
3.43613
3.4384
3.44279
3.44789
3.45162
3.45218
3.4506
3.44792
3.44684
3.44709
3.44812
3.45051
3.4548
3.45719
3.45739
3.4572
3.45585
3.45415
3.45372
3.45415
3.4569
1.40001
1.40001
1.40001
1.40001
1.40001
1.40001
1.40001
1.40001
1.40001
1.40001
1.40001
1.40001
1.40001
1.40001
1.40001
1.40001
1.40001
1.40001
1.40001
1.4
1.4
1.4
1.4
1.40001
1.39998
1.40323
1.42359
1.52647
1.82742
2.22163
2.70512
3.01397
3.30273
3.43376
3.47505
3.49294
3.49081
3.47367
3.44363
3.42937
3.41391
3.40668
3.40412
3.4044
3.41046
3.41653
3.42421
3.43549
3.44837
3.46271
3.46941
3.46991
3.46818
3.46598
3.4639
3.45994
3.45409
3.44635
3.43833
3.4343
3.43338
3.43408
3.43582
3.43678
3.43755
3.43904
3.4409
3.44267
3.44443
3.44719
3.45219
3.45787
3.46065
3.46089
3.46057
3.45893
3.45629
3.4549
3.45493
3.45575
1.40001
1.40001
1.40001
1.40001
1.40001
1.40001
1.40001
1.40001
1.40001
1.40001
1.40001
1.40001
1.40001
1.40001
1.40001
1.40001
1.40001
1.40001
1.40001
1.40001
1.40001
1.40001
1.40001
1.4
1.4
1.40001
1.39999
1.40016
1.40646
1.43623
1.59742
1.94266
2.36723
2.77968
3.07256
3.3361
3.44395
3.44976
3.45444
3.4848
3.49133
3.48111
3.46248
3.44173
3.42078
3.40998
3.40941
3.4151
3.42654
3.43932
3.45154
3.46064
3.46772
3.47067
3.4715
3.47216
3.471
3.46784
3.46221
3.45523
3.44872
3.44466
3.44188
3.44008
3.43993
3.44075
3.44193
3.44299
3.44437
3.44659
3.45051
3.45703
3.46174
3.46255
3.4621
3.46031
3.45774
3.45539
3.45361
3.45322
1.40001
1.40001
1.40001
1.40001
1.40001
1.40001
1.40001
1.40001
1.40001
1.40001
1.40001
1.40001
1.40001
1.40001
1.40001
1.40001
1.40001
1.40001
1.40001
1.40001
1.40001
1.40001
1.40001
1.40001
1.40001
1.40001
1.4
1.4
1.40001
1.39998
1.40094
1.41367
1.46489
1.69109
2.06161
2.57062
2.92777
3.19738
3.37011
3.46
3.50772
3.51387
3.51118
3.50009
3.47978
3.45787
3.44097
3.43384
3.43376
3.44031
3.44473
3.44484
3.44407
3.44665
3.45391
3.46338
3.46929
3.46976
3.46877
3.4677
3.46758
3.46723
3.46497
3.46052
3.45518
3.45017
3.44726
3.44685
3.44754
3.44956
3.45268
3.4553
3.45747
3.45812
3.45768
3.45605
3.45368
3.45278
3.45231
3.45185
1.40001
1.40001
1.40001
1.40001
1.40001
1.40001
1.40001
1.40001
1.40001
1.40001
1.40001
1.40001
1.40001
1.40001
1.40001
1.40001
1.40001
1.40001
1.40001
1.40001
1.40001
1.40001
1.40001
1.40001
1.40001
1.40001
1.40001
1.4
1.4
1.4
1.4
1.4
1.40003
1.40338
1.42516
1.53263
1.86774
2.30266
2.75349
3.04295
3.29077
3.43854
3.4889
3.48984
3.49584
3.5108
3.5093
3.49926
3.48909
3.481
3.46763
3.45031
3.44034
3.43993
3.44387
3.45018
3.45477
3.4581
3.46304
3.4689
3.47258
3.47427
3.47439
3.47273
3.47222
3.47114
3.46832
3.46497
3.46231
3.46029
3.45916
3.45837
3.45719
3.45522
3.45283
3.45108
3.45063
3.45078
3.45131
3.45197
1.40001
1.40001
1.40001
1.40001
1.40001
1.40001
1.40001
1.40001
1.40001
1.40001
1.40001
1.40001
1.40001
1.40001
1.40001
1.40001
1.40001
1.40001
1.40001
1.40001
1.40001
1.40001
1.40001
1.40001
1.40001
1.40001
1.40001
1.40001
1.40001
1.40001
1.40001
1.4
1.4
1.40001
1.4
1.40052
1.41259
1.4604
1.66744
2.07316
2.60244
2.96769
3.19895
3.33785
3.42483
3.4919
3.51534
3.52132
3.52404
3.52562
3.51843
3.50037
3.48394
3.4719
3.46482
3.46142
3.45935
3.45954
3.46114
3.46309
3.46453
3.46598
3.47069
3.47701
3.47926
3.48015
3.4795
3.47831
3.4771
3.47538
3.4731
3.4701
3.4658
3.46042
3.45523
3.45263
3.45223
3.45241
3.45303
3.45392
1.40001
1.40001
1.40001
1.40001
1.40001
1.40001
1.40001
1.40001
1.40001
1.40001
1.40001
1.40001
1.40001
1.40001
1.40001
1.40001
1.40001
1.40001
1.40001
1.40001
1.40001
1.40001
1.40001
1.40001
1.40001
1.40001
1.40001
1.40001
1.40001
1.40001
1.40001
1.40001
1.4
1.4
1.4
1.4
1.4
1.40007
1.40373
1.43304
1.54889
1.91872
2.42161
2.88678
3.124
3.3116
3.38943
3.44501
3.49444
3.51828
3.51845
3.51485
3.5099
3.50682
3.50848
3.50661
3.49829
3.48558
3.47725
3.47271
3.46992
3.46919
3.46874
3.47018
3.47314
3.47586
3.48012
3.48124
3.4806
3.47986
3.47912
3.47814
3.47595
3.47151
3.46628
3.4628
3.46111
3.4607
3.46124
3.46256
1.40001
1.40001
1.40001
1.40001
1.40001
1.40001
1.40001
1.40001
1.40001
1.40001
1.40001
1.40001
1.40001
1.40001
1.40001
1.40001
1.40001
1.40001
1.40001
1.40001
1.40001
1.40001
1.40001
1.40001
1.40001
1.40001
1.40001
1.40001
1.40001
1.40001
1.40001
1.40001
1.40001
1.40001
1.40001
1.4
1.4
1.4
1.40001
1.40002
1.40097
1.4217
1.50004
1.76588
2.24422
2.84933
3.13853
3.27753
3.35866
3.43136
3.45497
3.46284
3.47854
3.50456
3.52388
3.52783
3.52424
3.51818
3.51686
3.51307
3.50523
3.49485
3.48469
3.47845
3.47658
3.47739
3.4781
3.47858
3.47876
3.47959
3.48142
3.48186
3.47991
3.47651
3.47385
3.47245
3.47167
3.47077
3.47076
3.47155
1.40001
1.40001
1.40001
1.40001
1.40001
1.40001
1.40001
1.40001
1.40001
1.40001
1.40001
1.40001
1.40001
1.40001
1.40001
1.40001
1.40001
1.40001
1.40001
1.40001
1.40001
1.40001
1.40001
1.40001
1.40001
1.40001
1.40001
1.40001
1.40001
1.40001
1.40001
1.40001
1.40001
1.40001
1.40001
1.40001
1.40001
1.4
1.4
1.4
1.4
1.40002
1.40042
1.4099
1.47307
1.68745
2.16733
2.74781
3.2025
3.31959
3.38552
3.39297
3.39909
3.42666
3.46309
3.49144
3.50618
3.51815
3.52327
3.52407
3.52053
3.51354
3.50803
3.5039
3.49963
3.49444
3.48914
3.48468
3.48234
3.48277
3.48322
3.48222
3.48
3.47894
3.47887
3.4793
3.47923
3.47839
3.4777
3.47827
1.40001
1.40001
1.40001
1.40001
1.40001
1.40001
1.40001
1.40001
1.40001
1.40001
1.40001
1.40001
1.40001
1.40001
1.40001
1.40001
1.40001
1.40001
1.40001
1.40001
1.40001
1.40001
1.40001
1.40001
1.40001
1.40001
1.40001
1.40001
1.40001
1.40001
1.40001
1.40001
1.40001
1.40001
1.40001
1.40001
1.40001
1.40001
1.40001
1.40001
1.4
1.4
1.4
1.4
1.40027
1.40554
1.46901
1.66108
2.10406
2.65165
3.20829
3.38549
3.3938
3.41378
3.42679
3.4414
3.45731
3.47168
3.47987
3.48704
3.49501
3.50151
3.50539
3.50866
3.5108
3.5106
3.50981
3.50573
3.49927
3.49357
3.49083
3.48881
3.4877
3.48796
3.49004
3.49043
3.48966
3.4876
3.48332
3.47946
1.40001
1.40001
1.40001
1.40001
1.40001
1.40001
1.40001
1.40001
1.40001
1.40001
1.40001
1.40001
1.40001
1.40001
1.40001
1.40001
1.40001
1.40001
1.40001
1.40001
1.40001
1.40001
1.40001
1.40001
1.40001
1.40001
1.40001
1.40001
1.40001
1.40001
1.40001
1.40001
1.40001
1.40001
1.40001
1.40001
1.40001
1.40001
1.40001
1.40001
1.40001
1.40001
1.4
1.4
1.4
1.4
1.40031
1.40434
1.45618
1.63513
2.10009
2.67249
3.13999
3.41821
3.4655
3.48641
3.48576
3.47306
3.46317
3.45747
3.46077
3.46763
3.47097
3.47838
3.49359
3.51126
3.51595
3.51452
3.50944
3.50412
3.5007
3.49831
3.4977
3.49793
3.50047
3.50327
3.50337
3.50139
3.49341
3.4822
1.40001
1.40001
1.40001
1.40001
1.40001
1.40001
1.40001
1.40001
1.40001
1.40001
1.40001
1.40001
1.40001
1.40001
1.40001
1.40001
1.40001
1.40001
1.40001
1.40001
1.40001
1.40001
1.40001
1.40001
1.40001
1.40001
1.40001
1.40001
1.40001
1.40001
1.40001
1.40001
1.40001
1.40001
1.40001
1.40001
1.40001
1.40001
1.40001
1.40001
1.40001
1.40001
1.40001
1.40001
1.4
1.4
1.4
1.4
1.40025
1.4039
1.4536
1.67957
2.12995
2.70556
3.17315
3.41269
3.52246
3.52541
3.52962
3.50824
3.48659
3.477
3.46974
3.46869
3.47689
3.49154
3.50128
3.503
3.50507
3.50683
3.5049
3.4992
3.49757
3.49777
3.50022
3.50668
3.51135
3.51182
3.50755
3.49263
1.40001
1.40001
1.40001
1.40001
1.40001
1.40001
1.40001
1.40001
1.40001
1.40001
1.40001
1.40001
1.40001
1.40001
1.40001
1.40001
1.40001
1.40001
1.40001
1.40001
1.40001
1.40001
1.40001
1.40001
1.40001
1.40001
1.40001
1.40001
1.40001
1.40001
1.40001
1.40001
1.40001
1.40001
1.40001
1.40001
1.40001
1.40001
1.40001
1.40001
1.40001
1.40001
1.40001
1.40001
1.40001
1.40001
1.4
1.4
1.4
1.4
1.40029
1.40603
1.46398
1.72773
2.22157
2.77416
3.20012
3.42135
3.50405
3.53096
3.52923
3.52718
3.52101
3.50418
3.50013
3.5001
3.49874
3.50003
3.50193
3.50259
3.50101
3.49449
3.48827
3.48609
3.48716
3.49499
3.50812
3.51226
3.5108
3.502
1.40001
1.40001
1.40001
1.40001
1.40001
1.40001
1.40001
1.40001
1.40001
1.40001
1.40001
1.40001
1.40001
1.40001
1.40001
1.40001
1.40001
1.40001
1.40001
1.40001
1.40001
1.40001
1.40001
1.40001
1.40001
1.40001
1.40001
1.40001
1.40001
1.40001
1.40001
1.40001
1.40001
1.40001
1.40001
1.40001
1.40001
1.40001
1.40001
1.40001
1.40001
1.40001
1.40001
1.40001
1.40001
1.40001
1.40001
1.40001
1.4
1.4
1.4
1.4
1.40047
1.40902
1.48101
1.81496
2.38704
2.87657
3.21553
3.41094
3.49262
3.50977
3.52501
3.53003
3.52998
3.52677
3.51868
3.51159
3.51054
3.51237
3.51231
3.50587
3.49252
3.48229
3.48148
3.48495
3.49312
3.50297
3.50645
3.50459
1.40001
1.40001
1.40001
1.40001
1.40001
1.40001
1.40001
1.40001
1.40001
1.40001
1.40001
1.40001
1.40001
1.40001
1.40001
1.40001
1.40001
1.40001
1.40001
1.40001
1.40001
1.40001
1.40001
1.40001
1.40001
1.40001
1.40001
1.40001
1.40001
1.40001
1.40001
1.40001
1.40001
1.40001
1.40001
1.40001
1.40001
1.40001
1.40001
1.40001
1.40001
1.40001
1.40001
1.40001
1.40001
1.40001
1.40001
1.40001
1.40001
1.40001
1.4
1.4
1.4
1.40001
1.40086
1.41829
1.52375
1.91557
2.58403
3.06363
3.2761
3.37515
3.43517
3.47504
3.50621
3.51408
3.50883
3.50432
3.50834
3.51633
3.52351
3.525
3.52046
3.50622
3.49141
3.48804
3.49013
3.49601
3.49958
3.49951
1.40001
1.40001
1.40001
1.40001
1.40001
1.40001
1.40001
1.40001
1.40001
1.40001
1.40001
1.40001
1.40001
1.40001
1.40001
1.40001
1.40001
1.40001
1.40001
1.40001
1.40001
1.40001
1.40001
1.40001
1.40001
1.40001
1.40001
1.40001
1.40001
1.40001
1.40001
1.40001
1.40001
1.40001
1.40001
1.40001
1.40001
1.40001
1.40001
1.40001
1.40001
1.40001
1.40001
1.40001
1.40001
1.40001
1.40001
1.40001
1.40001
1.40001
1.40001
1.40001
1.40001
1.4
1.4
1.40004
1.40187
1.43531
1.60658
2.11228
2.8017
3.29664
3.36438
3.41895
3.45823
3.47684
3.47062
3.46196
3.46126
3.4702
3.49127
3.5167
3.52277
3.52019
3.51385
3.5048
3.49898
3.49871
3.49955
3.49911
1.40001
1.40001
1.40001
1.40001
1.40001
1.40001
1.40001
1.40001
1.40001
1.40001
1.40001
1.40001
1.40001
1.40001
1.40001
1.40001
1.40001
1.40001
1.40001
1.40001
1.40001
1.40001
1.40001
1.40001
1.40001
1.40001
1.40001
1.40001
1.40001
1.40001
1.40001
1.40001
1.40001
1.40001
1.40001
1.40001
1.40001
1.40001
1.40001
1.40001
1.40001
1.40001
1.40001
1.40001
1.40001
1.40001
1.40001
1.40001
1.40001
1.40001
1.40001
1.40001
1.40001
1.40001
1.4
1.4
1.4
1.4002
1.40506
1.48419
1.76409
2.38986
2.99726
3.3747
3.5174
3.52747
3.51871
3.48354
3.45187
3.44127
3.44827
3.47221
3.49884
3.5122
3.51635
3.5133
3.50737
3.50704
3.50647
3.5027
1.40001
1.40001
1.40001
1.40001
1.40001
1.40001
1.40001
1.40001
1.40001
1.40001
1.40001
1.40001
1.40001
1.40001
1.40001
1.40001
1.40001
1.40001
1.40001
1.40001
1.40001
1.40001
1.40001
1.40001
1.40001
1.40001
1.40001
1.40001
1.40001
1.40001
1.40001
1.40001
1.40001
1.40001
1.40001
1.40001
1.40001
1.40001
1.40001
1.40001
1.40001
1.40001
1.40001
1.40001
1.40001
1.40001
1.40001
1.40001
1.40001
1.40001
1.40001
1.40001
1.40001
1.40001
1.40001
1.40001
1.4
1.4
1.40001
1.40113
1.41631
1.57503
2.04716
2.68917
3.16535
3.45109
3.53763
3.5429
3.53478
3.49573
3.47497
3.47304
3.48486
3.49291
3.49502
3.49673
3.49992
3.50625
3.51226
3.50846
1.40001
1.40001
1.40001
1.40001
1.40001
1.40001
1.40001
1.40001
1.40001
1.40001
1.40001
1.40001
1.40001
1.40001
1.40001
1.40001
1.40001
1.40001
1.40001
1.40001
1.40001
1.40001
1.40001
1.40001
1.40001
1.40001
1.40001
1.40001
1.40001
1.40001
1.40001
1.40001
1.40001
1.40001
1.40001
1.40001
1.40001
1.40001
1.40001
1.40001
1.40001
1.40001
1.40001
1.40001
1.40001
1.40001
1.40001
1.40001
1.40001
1.40001
1.40001
1.40001
1.40001
1.40001
1.40001
1.40001
1.40001
1.4
1.4
1.4
1.40008
1.40439
1.46118
1.76303
2.36029
2.95085
3.32789
3.49735
3.52399
3.52607
3.51704
3.50891
3.50824
3.50414
3.49502
3.49032
3.49257
3.49993
3.51341
3.51528
1.40001
1.40001
1.40001
1.40001
1.40001
1.40001
1.40001
1.40001
1.40001
1.40001