/*--------------------------------*- C++ -*----------------------------------*\
| =========                 |                                                 |
| \\      /  F ield         | OpenFOAM: The Open Source CFD Toolbox           |
|  \\    /   O peration     | Version:  2206                                  |
|   \\  /    A nd           | Website:  www.openfoam.com                      |
|    \\/     M anipulation  |                                                 |
\*---------------------------------------------------------------------------*/
FoamFile
{
    version     2.0;
    format      ascii;
    arch        "LSB;label=32;scalar=64";
    class       volScalarField;
    location    "0.08";
    object      p;
}
// * * * * * * * * * * * * * * * * * * * * * * * * * * * * * * * * * * * * * //

dimensions      [1 -1 -2 0 0 0 0];

internalField   nonuniform List<scalar> 
75
(
1
1
1
1
1
1
1
1
1
1
1
1
1
1
1
1
1
1
1
1
1
1
1
1
1
1.2825
1.74637
2.32814
2.97033
3.5709
3.82488
3.89124
3.7918
3.58204
3.35572
1.00915
1.05467
1.17627
1.42082
1.79732
2.2155
2.52937
2.68282
2.82247
3.01907
1.00006
1
1.00225
1.01953
1.0951
1.31486
1.70701
2.24807
2.69933
3.05484
1
0.999995
0.999992
0.999915
1.00093
1.01456
1.08275
1.31032
1.75738
2.51568
1
0.999999
0.999996
0.999974
0.999968
0.999964
1.00113
1.01486
1.09404
1.72166
)
;

boundaryField
{
    inlet
    {
        type            fixedValue;
        value           uniform 1;
    }
    outlet
    {
        type            zeroGradient;
    }
    bottom
    {
        type            symmetryPlane;
    }
    top
    {
        type            symmetryPlane;
    }
    obstacle
    {
        type            zeroGradient;
    }
    defaultFaces
    {
        type            empty;
    }
}


// ************************************************************************* //
