/*--------------------------------*- C++ -*----------------------------------*\
| =========                 |                                                 |
| \\      /  F ield         | OpenFOAM: The Open Source CFD Toolbox           |
|  \\    /   O peration     | Version:  2206                                  |
|   \\  /    A nd           | Website:  www.openfoam.com                      |
|    \\/     M anipulation  |                                                 |
\*---------------------------------------------------------------------------*/
FoamFile
{
    version     2.0;
    format      ascii;
    arch        "LSB;label=32;scalar=64";
    class       volScalarField;
    location    "0.08";
    object      T;
}
// * * * * * * * * * * * * * * * * * * * * * * * * * * * * * * * * * * * * * //

dimensions      [0 0 0 1 0 0 0];

internalField   nonuniform List<scalar> 
75
(
1
1
1
1
1
1
1
1
1
1
1
1
1
1
1
1
1
1
1
1
1
1
1
1
1
1.07603
1.17905
1.28777
1.39179
1.47722
1.51164
1.52332
1.51509
1.49186
1.46458
1.00287
1.0176
1.05541
1.12124
1.20124
1.27221
1.31873
1.34333
1.37004
1.4086
1.00002
1
1.00073
1.00626
1.02964
1.09181
1.18434
1.29187
1.37038
1.42482
1
0.999999
0.999998
0.999972
1.00028
1.00463
1.02662
1.09671
1.21258
1.36136
1
1
0.999999
0.999992
0.99999
0.999988
1.00035
1.00489
1.03252
1.21847
)
;

boundaryField
{
    inlet
    {
        type            fixedValue;
        value           uniform 1;
    }
    outlet
    {
        type            zeroGradient;
    }
    bottom
    {
        type            symmetryPlane;
    }
    top
    {
        type            symmetryPlane;
    }
    obstacle
    {
        type            zeroGradient;
    }
    defaultFaces
    {
        type            empty;
    }
}


// ************************************************************************* //
