/*--------------------------------*- C++ -*----------------------------------*\
| =========                 |                                                 |
| \\      /  F ield         | OpenFOAM: The Open Source CFD Toolbox           |
|  \\    /   O peration     | Version:  2206                                  |
|   \\  /    A nd           | Website:  www.openfoam.com                      |
|    \\/     M anipulation  |                                                 |
\*---------------------------------------------------------------------------*/
FoamFile
{
    version     2.0;
    format      ascii;
    arch        "LSB;label=32;scalar=64";
    class       volScalarField;
    location    "0.08";
    object      T;
}
// * * * * * * * * * * * * * * * * * * * * * * * * * * * * * * * * * * * * * //

dimensions      [0 0 0 1 0 0 0];

internalField   nonuniform List<scalar> 
4800
(
1
1
1
1
1
1
1
1
1
1
1
1
1
1
1
1
1
1
1
1
1
1
1
1
1
1
1
1
1
1
1
1
1
1
1
1
1
1
1
1
1
1
1
1
1
1
1
1
1
1
1
1
1
1
1
1
1
1
1
1
1
1
1
1
1
1
1
1
1
1
1
1
1
1
1
1
1
1
1
1
1
1
1
1
1
1
1
1
1
1
1
1
1
1
1
1
1
1
1
1
1
1
1
1
1
1
1
1
1
1
1
1
1
1
1
1
1
1
1
1
1
1
1
1
1
1
1
1
1
1
1
1
1
1
1
1
1
1
1
1
1
1
1
1
1
1
1
1
1
1
1
1
1
1
1
1
1
1
1
1
1
1
1
1
1
1
1
1
1
1
1
1
1
1
1
1
1
1
1
1
1
1
1
1
1
1
1
1
1
1
1
1
1
1
1
1
1
1
1
1
1
1
1
1
1
1
1
1
1
1
1
1
1
1
1
1
1
1
1
1
1
1
1
1
1
1
1
1
1
1
1
1
1
1
1
1
1
1
1
1
1
1
1
1
1
1
1
1
1
1
1
1
1
1
1
1
1
1
1
1
1
1
1
1
1
1
1
1
1
1
1
1
1
1
1
1
1
1
1
1
1
1
1
1
1
1
1
1
1
1
1
1
1
1
1
1
1
1
1
1
1
1
1
1
1
1
1
1
1
1
1
1
1
1
1
1
1
1
1
1
1
1
1
1
1
1
1
1
1
1
1
1
1
1
1
1
1
1
1
1
1
1
1
1
1
1
1
1
1
1
1
1
1
1
1
1
1
1
1
1
1
1
1
1
1
1
1
1
1
1
1
1
1
1
1
1
1
1
1
1
1
1
1
1
1
1
1
1
1
1
1
1
1
1
1
1
1
1
1
1
1
1
1
1
1
1
1
1
1
1
1
1
1
1
1
1
1
1
1
1
1
1
1
1
1
1
1
1
1
1
1
1
1
1
1
1
1
1
1
1
1
1
1
1
1
1
1
1
1
1
1
1
1
1
1
1
1
1
1
1
1
1
1
1
1
1
1
1
1
1
1
1
1
1
1
1
1
1
1
1
1
1
1
1
1
1
1
1
1
1
1
1
1
1
1
1
1
1
1
1
1
1
1
1
1
1
1
1
1
1
1
1
1
1
1
1
1
1
1
1
1
1
1
1
1
1
1
1
1
1
1
1
1
1
1
1
1
1
1
1
1
1
1
1
1
1
1
1
1
1
1
1
1
1
1
1
1
1
1
1
1
1
1
1
1
1
1
1
1
1
1
1
1
1
1
1
1
1
1
1
1
1
1
1
1
1
1
1
1
1
1
1
1
1
1
1
1
1
1
1
1
1
1
1
1
1
1
1
1
1
1
1
1
1
1
1
1
1
1
1
1
1
1
1
1
1
1
1
1
1
1
1
1
1
1
1
1
1
1
1
1
1
1
1
1
1
1
1
1
1
1
1
1
1
1
1
1
1
1
1
1
1
1
1
1
1
1
1
1
1
1
1
1
1
1
1
1
1
1
1
1
1
1
1
1
1
1
1
1
1
1
1
1
1
1
1
1
1
1
1
1
1
1
1
1
1
1
1
1
1
1
1
1
1
1
1
1
1
1
1
1
1
1
1
1
1
1
1
1
1
1
1
1
1
1
1
1
1
1
1
1
1
1
1
1
1
1
1
1
1
1
1
1
1
1
1
1
1
1
1
1
1
1
1
1
1
1
1
1
1
1
1
1
1
1
1
1
1
1
1
1
1
1
1
1
1
1
1
1
1
1
1
1
1
1
1
1
1
1
1
1
1
1
1
1
1
1
1
1
1
1
1
1
1
1
1
1
1
1
1
1
1
1
1
1
1
1
1
1
1
1
1
1
1
1
1
1
1
1
1
1
1
1
1
1
1
1
1
1
1
1
1
1
1
1
1
1
1
1
1
1
1
1
1
1
1
1
1
1
1
1
1
1
1
1
1
1
1
1
1
1
1
1
1
1
1
1
1
1
1
1
1
1
1
1
1
1
1
1
1
1
1
1
1
1
1
1
1
1
1
1
1
1
1
1
1
1
1
1
1
1
1
1
1
1
1
1
1
1
1
1
1
1
1
1
1
1
1
1
1
1
1
1
1
1
1
1
1
1
1
1
1
1
1
1
1
1
1
1
1
1
1
1
1
1
1
1
1
1
1
1
1
1
1
1
1
1
1
1
1
1
1
1
1
1
1
1
1
1
1
1
1
1
1
1
1
1
1
1
1
1
1
1
1
1
1
1
1
1
1
1
1
1
1
1
1
1
1
1
1
1
1
1
1
1
1
1
1
1
1
1
1
1
1
1
1
1
1
1
1
1
1
1
1
1
1
1
1
1
1
1
1
1
1
1
1
1
1
1
1
1
1
1
1
1
1
1
1
1
1
1
1
1
1
1
1
1
1
1
1
1
1
1
1
1
1
1
1
1
1
1
1
1
1
1
1
1
1
1
1
1
1
1
1
1
1
1
1
1
1
1
1
1
1
1
1
1
1
1
1
1
1
1
1
1
1
1
1
1
1
1
1
1
1
1
1
1
1
1
1
1
1
1
1
1
1
1
1
1
1
1
1
1
1
1
1
1
1
1
1
1
1
1
1
1
1
1
1
1
1
1
1
1
1
1
1
1
1
1
1
1
1
1
1
1
1
1
1
1
1
1
1
1
1
1
1
1
1
1
1
1
1
1
1
1
1
1
1
1
1
1
1
1
1
1
1
1
1
1
1
1
1
1
1
1
1
1
1
1
1
1
1
1
1
1
1
1
1
1
1
1
1
1
1
1
1
1
1
1
1
1
1
1
1
1
1
1
1
1
1
1
1
1
1
1
1
1
1
1
1
1
1
1
1
1
1
1
1
1
1
1
1
1
1
1
1
1
1
1
1
1
1
1
1
1
1
1
1
1
1
1
1
1
1
1
1
1
1
1
1
1
1
1
1
1
1
1
1
1
1
1
1
1
1
1
1
1
1
1
1
1
1
1
1
1
1
1
1
1
1
1
1
1
1
1
1
1
1
1
1
1
1
1
1
1
1
1
1
1
1
1
1
1
1
1
1
1
1
1
1
1
1
1
1
1
1
1
1
1
1
1
1
1
1
1
1
1
1
1
1
1
1
1
1
1
1
1
1
1
1
1
1
1
1
1
1
1
1
1
1
1
1
1
1
1
1
1
1
1
1
1
1
1
1
1
1
1
1
1
1
1
1
1
1
1
1
1
1
1
1
1
1
1
1
1
1
1
1
1
1
1
1
1
1
1
1
1
1
1
1
1
1
1
1
1
1
1
1
1
1
1
1
1
1
1
1
1
1
1
1
1
1
1
1
1
1
1
1
1
1
1
1
1
1
1
1
1
1
1
1
1
1
1
1
1
1
1
1
1
1
1
1
1
1
1
1
1
1
1
1
1
1
1
1
1
1
1
1
1
1
1
1
1
1
1
1
1
1
1
1
1
1
1
1
1
1
1
1
1
1
1
1
1
1
1
1
1
1
1
1
1
1
1
1
1
1
1
1
1
1
1
1
1
1
1
1
1
1
1
1
1
1
1
1
1
1
1
1
1
1
1
1
1
1
1
1
1
1
1
1
1.07238
1.16557
1.26709
1.35707
1.42674
1.51117
1.59041
1.62852
1.66986
1.69923
1.69925
1.69311
1.67517
1.64294
1.6053
1.56197
1.53449
1.53212
1.53086
1.52599
1.52598
1.53027
1.53782
1.54577
1.54924
1.54937
1.54908
1.54901
1.55032
1.55186
1.55239
1.55289
1.55438
1.55697
1.55862
1.55927
1.5595
1.55932
1.55908
1.55897
1.55878
1.55818
1.55707
1.55639
1.55631
1.55665
1.55771
1.55902
1.55967
1.55998
1.56002
1.55938
1.55808
1.55601
1.55282
1.54878
1.54487
1.54127
1.53854
1.53732
1.53688
1.53655
1.53601
1.53537
1.53504
1.53478
1.53473
1.53478
1.53499
1.53538
1.53586
1.53608
1.53583
1.53467
1.53248
1.5299
1.52815
1.52798
1.52841
1.52837
1.00015
1.00285
1.00916
1.04047
1.09317
1.13641
1.21416
1.28879
1.34579
1.40301
1.44899
1.49282
1.51587
1.54279
1.57148
1.57726
1.57369
1.57458
1.57709
1.57281
1.56204
1.557
1.55326
1.55016
1.54884
1.54943
1.55061
1.55231
1.55481
1.55669
1.55738
1.55744
1.55733
1.55727
1.55766
1.55813
1.55864
1.55946
1.56057
1.56135
1.5617
1.56168
1.56145
1.56084
1.56077
1.56111
1.5618
1.56205
1.56183
1.56097
1.56008
1.55893
1.55734
1.55511
1.55196
1.54804
1.54435
1.54112
1.53922
1.5384
1.53827
1.53823
1.53797
1.53691
1.53567
1.53514
1.53499
1.53501
1.53519
1.53556
1.53593
1.53598
1.53556
1.5341
1.53172
1.52905
1.52747
1.52735
1.52758
1.52787
1
1
1
1
0.999991
1.00011
1.0026
1.01364
1.0391
1.10356
1.19003
1.30453
1.42667
1.54416
1.60068
1.62195
1.63007
1.62825
1.62404
1.61569
1.60046
1.57379
1.56206
1.55957
1.55937
1.55989
1.56219
1.56626
1.56759
1.56733
1.56729
1.5674
1.56735
1.56645
1.56586
1.56582
1.56525
1.56514
1.56591
1.56703
1.56788
1.56842
1.56871
1.56873
1.5686
1.56875
1.56926
1.5694
1.569
1.56758
1.56544
1.56341
1.5613
1.55866
1.55516
1.55104
1.54666
1.54399
1.54286
1.54258
1.54263
1.54253
1.54217
1.5412
1.53948
1.53808
1.53757
1.53753
1.53763
1.53777
1.53787
1.5379
1.53779
1.53673
1.53383
1.53069
1.52896
1.52856
1.52881
1.52925
1
1
1
1
1
1
1
0.999992
0.999986
1.00004
1.00153
1.0132
1.07629
1.19666
1.35738
1.46542
1.55661
1.60098
1.60486
1.60416
1.59722
1.59736
1.59537
1.59462
1.59232
1.58681
1.58519
1.58208
1.57787
1.57637
1.57684
1.57789
1.57872
1.5786
1.57898
1.57852
1.57736
1.57686
1.57675
1.57617
1.57611
1.576
1.57582
1.57597
1.57685
1.57838
1.57946
1.57956
1.57893
1.57698
1.57438
1.5719
1.56949
1.56664
1.56317
1.55897
1.55328
1.54972
1.54872
1.54866
1.54932
1.54976
1.54927
1.54788
1.54595
1.54417
1.543
1.54232
1.54193
1.54162
1.54146
1.54161
1.54166
1.54096
1.53756
1.53349
1.53147
1.53081
1.53103
1.53173
1
1
1
1
1
1
1
1
1
1
0.999998
1
0.999976
1.00098
1.01791
1.08888
1.20263
1.35914
1.47522
1.57829
1.61325
1.62329
1.62639
1.62382
1.61981
1.61229
1.59622
1.58222
1.5811
1.58296
1.58576
1.5877
1.58862
1.58853
1.58785
1.58731
1.58737
1.58807
1.58826
1.58713
1.58625
1.58566
1.58455
1.58346
1.58337
1.58412
1.58539
1.5857
1.58553
1.5845
1.58267
1.58059
1.57831
1.57562
1.57237
1.56817
1.56219
1.5579
1.55665
1.55614
1.55605
1.55637
1.55634
1.55524
1.55355
1.55192
1.55053
1.5491
1.54793
1.54709
1.54613
1.54545
1.54542
1.54508
1.5428
1.53741
1.53409
1.53315
1.53327
1.53445
1
1
1
1
1
1
1
1
1
1
1
1
1
0.999998
1
1.00005
1.00148
1.02447
1.10443
1.22638
1.37687
1.4746
1.56877
1.59197
1.59764
1.60001
1.597
1.59009
1.59043
1.59376
1.59405
1.59468
1.59318
1.59073
1.58837
1.58861
1.5899
1.59204
1.59311
1.59421
1.59412
1.5932
1.59139
1.5895
1.58851
1.58833
1.58901
1.58909
1.58896
1.58838
1.58726
1.58576
1.58371
1.58117
1.57822
1.57449
1.56962
1.56518
1.56307
1.56225
1.56161
1.56103
1.5607
1.56008
1.55918
1.55829
1.55719
1.55573
1.55377
1.5519
1.55021
1.5486
1.5479
1.54748
1.54598
1.54178
1.53777
1.53653
1.53625
1.53687
1
1
1
1
1
1
1
1
1
1
1
1
1
1
1
1
1
0.999985
1.0002
1.00284
1.03383
1.11189
1.24039
1.38024
1.48256
1.57077
1.58863
1.5981
1.60366
1.60238
1.60016
1.59457
1.58614
1.58042
1.58072
1.58385
1.58753
1.59052
1.59335
1.5953
1.59567
1.59542
1.59322
1.591
1.59047
1.59042
1.59097
1.591
1.59064
1.58994
1.58896
1.58749
1.58537
1.58278
1.58013
1.57694
1.57295
1.56898
1.56636
1.56473
1.56379
1.5631
1.56253
1.56202
1.56161
1.56139
1.5609
1.55961
1.55761
1.55483
1.55241
1.55023
1.54863
1.54752
1.5465
1.54397
1.53995
1.53816
1.53743
1.53802
1
1
1
1
1
1
1
1
1
1
1
1
1
1
1
1
1
1
0.999999
1
0.999997
1.00037
1.005
1.04966
1.13541
1.27049
1.40003
1.49844
1.57142
1.57707
1.58255
1.58947
1.58286
1.578
1.5786
1.58197
1.58579
1.58687
1.58783
1.58932
1.59077
1.59161
1.59161
1.59177
1.59217
1.59257
1.5927
1.59241
1.59162
1.59059
1.58905
1.5871
1.58472
1.58194
1.57931
1.5764
1.57309
1.57027
1.56745
1.56508
1.56366
1.56299
1.5623
1.56161
1.56097
1.561
1.56163
1.56177
1.56129
1.5588
1.55525
1.552
1.54875
1.54664
1.54538
1.54384
1.54098
1.53897
1.53831
1.53869
1
1
1
1
1
1
1
1
1
1
1
1
1
1
1
1
1
1
1
1
1
1
0.999993
1.00005
1.00093
1.01025
1.07288
1.17413
1.31439
1.42141
1.51669
1.56626
1.57407
1.57989
1.58618
1.58434
1.58312
1.58235
1.57898
1.57758
1.57811
1.58039
1.5839
1.58587
1.58713
1.58904
1.59092
1.59142
1.59116
1.59025
1.58865
1.58666
1.58433
1.58148
1.57784
1.57413
1.57138
1.5694
1.56819
1.56678
1.56478
1.56254
1.56109
1.56028
1.55975
1.55937
1.55961
1.56042
1.56046
1.56002
1.55738
1.55365
1.54977
1.54551
1.5433
1.54238
1.54076
1.53882
1.53827
1.53885
1
1
1
1
1
1
1
1
1
1
1
1
1
1
1
1
1
1
1
1
1
1
1
1
1
0.999991
1.00022
1.00238
1.02312
1.10302
1.21339
1.35031
1.44925
1.53464
1.57206
1.57271
1.57737
1.58003
1.57565
1.57222
1.57216
1.57298
1.57485
1.57678
1.57785
1.57976
1.58309
1.58599
1.58659
1.58598
1.58464
1.58324
1.5813
1.57867
1.57536
1.57143
1.56822
1.56666
1.56594
1.5655
1.56522
1.56428
1.56211
1.55952
1.5578
1.55697
1.55662
1.55684
1.5575
1.55745
1.5565
1.55344
1.54925
1.54476
1.54069
1.53954
1.539
1.53766
1.5374
1.53807
1
1
1
1
1
1
1
1
1
1
1
1
1
1
1
1
1
1
1
1
1
1
1
1
1
1
1
0.999997
1.00001
1.00072
1.00558
1.04787
1.15391
1.28195
1.39543
1.482
1.55296
1.56701
1.56903
1.57502
1.57746
1.57509
1.5726
1.57222
1.57224
1.57287
1.57454
1.57635
1.57708
1.57724
1.57739
1.57722
1.57599
1.57377
1.5707
1.56675
1.56287
1.56178
1.56182
1.56209
1.5621
1.56179
1.56152
1.56082
1.55843
1.55531
1.55339
1.55211
1.55169
1.55173
1.55181
1.55089
1.54718
1.54227
1.53831
1.53607
1.53549
1.53521
1.5353
1.53643
1
1
1
1
1
1
1
1
1
1
1
1
1
1
1
1
1
1
1
1
1
1
1
1
1
1
1
1
1
1
0.999994
1.00016
1.00253
1.01753
1.09485
1.21207
1.35106
1.43842
1.50926
1.55631
1.5655
1.56878
1.57449
1.57543
1.57516
1.57491
1.5745
1.57321
1.57126
1.57062
1.57069
1.5707
1.56984
1.56797
1.56543
1.56201
1.55739
1.55526
1.55518
1.5553
1.5556
1.55659
1.55788
1.55851
1.55791
1.55553
1.5514
1.54764
1.54501
1.54396
1.54399
1.544
1.5427
1.53889
1.53513
1.53279
1.53162
1.53155
1.5318
1.53381
1
1
1
1
1
1
1
1
1
1
1
1
1
1
1
1
1
1
1
1
1
1
1
1
1
1
1
1
1
1
1
1
0.999998
1.00001
1.00091
1.00756
1.04721
1.17193
1.29969
1.40901
1.47095
1.53331
1.56268
1.56703
1.56976
1.57306
1.57447
1.5744
1.573
1.57055
1.57005
1.5697
1.56857
1.56609
1.56322
1.5599
1.55504
1.5509
1.54912
1.54834
1.54826
1.54841
1.54962
1.55186
1.5526
1.55167
1.5486
1.54407
1.53979
1.53658
1.5352
1.53522
1.53499
1.5337
1.53108
1.52897
1.52777
1.52759
1.52763
1.5303
1
1
1
1
1
1
1
1
1
1
1
1
1
1
1
1
1
1
1
1
1
1
1
1
1
1
1
1
1
1
1
1
1
1
1
0.999997
1.00021
1.00507
1.02589
1.11276
1.254
1.39135
1.46785
1.51019
1.54186
1.56144
1.56715
1.56902
1.56933
1.56881
1.56904
1.56914
1.56845
1.56629
1.56309
1.55994
1.55685
1.55335
1.5496
1.54542
1.54229
1.54114
1.54062
1.54095
1.54341
1.54469
1.54377
1.54042
1.53602
1.53196
1.52885
1.52734
1.52763
1.52794
1.52748
1.52609
1.5248
1.52399
1.52403
1.52707
1
1
1
1
1
1
1
1
1
1
1
1
1
1
1
1
1
1
1
1
1
1
1
1
1
1
1
1
1
1
1
1
1
1
1
1
1
0.999999
1.00005
1.00201
1.01861
1.07849
1.22594
1.36934
1.47122
1.50518
1.52932
1.54712
1.55487
1.5574
1.56014
1.56319
1.56312
1.56168
1.55897
1.55608
1.55314
1.55192
1.55119
1.54941
1.54514
1.53869
1.53437
1.53324
1.5336
1.53509
1.53595
1.53543
1.53269
1.52859
1.52485
1.52253
1.52185
1.5225
1.5233
1.52323
1.52275
1.52213
1.52202
1.52429
1
1
1
1
1
1
1
1
1
1
1
1
1
1
1
1
1
1
1
1
1
1
1
1
1
1
1
1
1
1
1
1
1
1
1
1
1
1
1
0.999998
1.00003
1.00083
1.01525
1.06563
1.19064
1.34062
1.46886
1.52481
1.53512
1.54687
1.55171
1.55329
1.55244
1.55032
1.54709
1.54373
1.54287
1.54478
1.54762
1.54804
1.54669
1.54328
1.53707
1.53011
1.52631
1.52538
1.52614
1.5278
1.52776
1.52562
1.5225
1.51971
1.51832
1.51815
1.51904
1.52065
1.52121
1.52126
1.52108
1.52217
1
1
1
1
1
1
1
1
1
1
1
1
1
1
1
1
1
1
1
1
1
1
1
1
1
1
1
1
1
1
1
1
1
1
1
1
1
1
1
1
1
0.999999
1.00003
1.00058
1.00922
1.06043
1.17538
1.32998
1.46244
1.54128
1.55535
1.55451
1.55454
1.54998
1.54325
1.53676
1.53409
1.53342
1.53554
1.54068
1.5421
1.54101
1.53765
1.53248
1.5252
1.52005
1.51861
1.51918
1.52166
1.52247
1.52167
1.51937
1.51661
1.51568
1.51612
1.51808
1.52013
1.52078
1.52064
1.52098
1
1
1
1
1
1
1
1
1
1
1
1
1
1
1
1
1
1
1
1
1
1
1
1
1
1
1
1
1
1
1
1
1
1
1
1
1
1
1
1
1
1
1
0.999999
1.00001
1.00056
1.00697
1.06201
1.1838
1.34847
1.46431
1.53517
1.55637
1.55696
1.55503
1.54843
1.53853
1.53037
1.52733
1.52691
1.52906
1.53359
1.53414
1.53194
1.52755
1.52096
1.51536
1.51404
1.51491
1.51844
1.51968
1.51912
1.51779
1.51545
1.51496
1.51581
1.51837
1.52019
1.52054
1.52051
1
1
1
1
1
1
1
1
1
1
1
1
1
1
1
1
1
1
1
1
1
1
1
1
1
1
1
1
1
1
1
1
1
1
1
1
1
1
1
1
1
1
1
1
1
0.999999
1.00001
1.00073
1.00854
1.07297
1.20085
1.35174
1.45966
1.52755
1.54938
1.54872
1.54764
1.54285
1.53167
1.5229
1.5197
1.51976
1.52426
1.52786
1.52744
1.52413
1.51844
1.51284
1.51172
1.51254
1.51637
1.51888
1.51896
1.5177
1.51518
1.51492
1.5161
1.51876
1.52024
1.52049
1
1
1
1
1
1
1
1
1
1
1
1
1
1
1
1
1
1
1
1
1
1
1
1
1
1
1
1
1
1
1
1
1
1
1
1
1
1
1
1
1
1
1
1
1
1
1
0.999999
1.00002
1.00104
1.01022
1.08063
1.22656
1.36644
1.45312
1.52035
1.54122
1.53878
1.53775
1.53482
1.52307
1.5132
1.51267
1.51649
1.52313
1.52427
1.52261
1.51723
1.51112
1.5104
1.51211
1.51725
1.51931
1.51933
1.51786
1.51522
1.51508
1.5165
1.5191
1.52004
1
1
1
1
1
1
1
1
1
1
1
1
1
1
1
1
1
1
1
1
1
1
1
1
1
1
1
1
1
1
1
1
1
1
1
1
1
1
1
1
1
1
1
1
1
1
1
1
1
0.999999
1.00003
1.00163
1.01549
1.09699
1.24196
1.38125
1.45417
1.50546
1.53126
1.53059
1.52902
1.52108
1.50958
1.50879
1.51321
1.52117
1.52271
1.52136
1.5158
1.51011
1.51007
1.51272
1.51787
1.51973
1.51979
1.51834
1.51554
1.51527
1.51644
1.51884
1
1
1
1
1
1
1
1
1
1
1
1
1
1
1
1
1
1
1
1
1
1
1
1
1
1
1
1
1
1
1
1
1
1
1
1
1
1
1
1
1
1
1
1
1
1
1
1
1
1
1
0.999999
1.00007
1.0026
1.02189
1.11606
1.26297
1.38161
1.44662
1.50361
1.52494
1.52393
1.51983
1.5071
1.50532
1.51133
1.52089
1.52252
1.52131
1.5162
1.51022
1.50979
1.51215
1.51754
1.51982
1.51979
1.51854
1.51583
1.51519
1.51653
1
1
1
1
1
1
1
1
1
1
1
1
1
1
1
1
1
1
1
1
1
1
1
1
1
1
1
1
1
1
1
1
1
1
1
1
1
1
1
1
1
1
1
1
1
1
1
1
1
1
1
1
1
1
1.00015
1.0039
1.02978
1.12956
1.26186
1.37083
1.45081
1.51413
1.51792
1.51414
1.50131
1.50128
1.51105
1.52141
1.523
1.52246
1.51759
1.51049
1.50952
1.51129
1.51626
1.51937
1.51958
1.51891
1.51638
1.51562
1
1
1
1
1
1
1
1
1
1
1
1
1
1
1
1
1
1
1
1
1
1
1
1
1
1
1
1
1
1
1
1
1
1
1
1
1
1
1
1
1
1
1
1
1
1
1
1
1
1
1
1
1
1
1
1
1.00028
1.00484
1.03263
1.12831
1.25893
1.37835
1.47038
1.50826
1.50782
1.49896
1.49897
1.5076
1.52039
1.52299
1.52246
1.51854
1.51152
1.50929
1.51026
1.51411
1.51849
1.5198
1.51958
1.51743
1
1
1
1
1
1
1
1
1
1
1
1
1
1
1
1
1
1
1
1
1
1
1
1
1
1
1
1
1
1
1
1
1
1
1
1
1
1
1
1
1
1
1
1
1
1
1
1
1
1
1
1
1
1
1
1
1
1.00001
1.00035
1.0048
1.03715
1.13352
1.26238
1.38534
1.4772
1.50289
1.49633
1.4943
1.50001
1.51436
1.52124
1.52136
1.52002
1.51501
1.50969
1.50948
1.51204
1.51749
1.52
1.51967
1
1
1
1
1
1
1
1
1
1
1
1
1
1
1
1
1
1
1
1
1
1
1
1
1
1
1
1
1
1
1
1
1
1
1
1
1
1
1
1
1
1
1
1
1
1
1
1
1
1
1
1
1
1
1
1
1
1
1
1.00001
1.00047
1.00529
1.03907
1.13454
1.27348
1.39713
1.48048
1.49754
1.49215
1.49404
1.50436
1.51783
1.52103
1.52138
1.51836
1.51116
1.50898
1.51078
1.51651
1.51951
1
1
1
1
1
1
1
1
1
1
1
1
1
1
1
1
1
1
1
1
1
1
1
1
1
1
1
1
1
1
1
1
1
1
1
1
1
1
1
1
1
1
1
1
1
1
1
1
1
1
1
1
1
1
1
1
1
1
1
1
1
1.00001
1.00052
1.00582
1.04564
1.1436
1.28782
1.40961
1.48304
1.48974
1.48724
1.49456
1.51265
1.52072
1.52183
1.51991
1.51283
1.5092
1.51044
1.51599
1
1
1
1
1
1
1
1
1
1
1
1
1
1
1
1
1
1
1
1
1
1
1
1
1
1
1
1
1
1
1
1
1
1
1
1
1
1
1
1
1
1
1
1
1
1
1
1
1
1
1
1
1
1
1
1
1
1
1
1
1
1
1
1.00002
1.00069
1.00733
1.05326
1.159
1.30351
1.42531
1.48146
1.48156
1.48814
1.50533
1.51984
1.52119
1.52077
1.51511
1.50987
1.51173
1
1
1
1
1
1
1
1
1
1
1
1
1
1
1
1
1
1
1
1
1
1
1
1
1
1
1
1
1
1
1
1
1
1
1
1
1
1
1
1
1
1
1
1
1
1
1
1
1
1
1
1
1
1
1
1
1
1
1
1
1
1
1
1
1
1.00003
1.00093
1.01026
1.06389
1.18371
1.33195
1.44607
1.47267
1.48174
1.49674
1.51643
1.51999
1.52038
1.5171
1.51232
1
1
1
1
1
1
1
1
1
1
1
1
1
1
1
1
1
1
1
1
1
1
1
1
1
1
1
1
1
1
1
1
1
1
1
1
1
1
1
1
1
1
1
1
1
1
1
1
1
1
1
1
1
1
1
1
1
1
1
1
1
1
1
1
1
1
1
1.00005
1.00141
1.01624
1.08309
1.21951
1.36904
1.44948
1.47154
1.48887
1.50902
1.51865
1.5194
1.51854
1
1
1
1
1
1
1
1
1
1
1
1
1
1
1
1
1
1
1
1
1
1
1
1
1
1
1
1
1
1
1
1
1
1
1
1
1
1
1
1
1
1
1
1
1
1
1
1
1
1
1
1
1
1
1
1
1
1
1
1
1
1
1
1
1
1
1
1
1
1.00014
1.00255
1.02728
1.11262
1.25471
1.40245
1.4589
1.47932
1.49707
1.51561
1.51802
1
1
1
1
1
1
1
1
1
1
1
1
1
1
1
1
1
1
1
1
1
1
1
1
1
1
1
1
1
1
1
1
1
1
1
1
1
1
1
1
1
1
1
1
1
1
1
1
1
1
1
1
1
1
1
1
1
1
1
1
1
1
1
1
1
1
1
1
1
1
1
1.00036
1.00496
1.04581
1.1555
1.30497
1.43524
1.47134
1.49356
1.51072
1
1
1
1
1
1
1
1
1
1
1
1
1
1
1
1
1
1
1
1
1
1
1
1
1
1
1
1
1
1
1
1
1
1
1
1
1
1
1
1
1
1
1
1
1
1
1
1
1
1
1
1
1
1
1
1
1
1
1
1
1
1
1
1
1
1
1
1
1
1
1
1
1.00002
1.00102
1.01118
1.07829
1.21283
1.36216
1.44805
1.49675
1
1
1
1
1
1
1
1
1
1
1
1
1
1
1
1
1
1
1
1
1
1
1
1
1
1
1
1
1
1
1
1
1
1
1
1
1
1
1
1
1
1
1
1
1
1
1
1
1
1
1
1
1
1
1
1
1
1
1
1
1
1
1
1
1
1
1
1
1
1
1
1
1
1
1.00008
1.00287
1.02523
1.12924
1.26847
1.44033
1
1
1
1
1
1
1
1
1
1
1
1
1
1
1
1
1
1
1
1
1
1
1
1
1
1
1
1
1
1
1
1
1
1
1
1
1
1
1
1
1
1
1
1
1
1
1
1
1
1
1
1
1
1
1
1
1
1
1
1
1
1
1
1
1
1
1
1
1
1
1
1
1
1
1
1.00001
1.00036
1.00828
1.04996
1.28772
1
1
1
1
1
1
1
1
1
1
1
1
1
1
1
1
1
1
1
1
1
1
1
1
1
1
1
1
1
1
1
1
1
1
1
1
1
1
1
1
1
1
1
1
1
1
1
1
1
1
1
1
1
1
1
1
1
1
1
1
1
1
1
1
1
1
1
1
1
1
1
1
1
1
1
1
1
1.00006
1.00138
1.07991
1
1
1
1
1
1
1
1
1
1
1
1
1
1
1
1
1
1
1
1
1
1
1
1
1
1
1
1
1
1
1
1
1
1
1
1
1
1
1
1
1
1
1
1
1
1
1
1
1
1
1
1
1
1
1
1
1
1
1
1
1
1
1
1
1
1
1
1
1
1
1
1
1
1
1
1
1
1
1.00001
1.00597
1
1
1
1
1
1
1
1
1
1
1
1
1
1
1
1
1
1
1
1
1
1
1
1
1
1
1
1
1
1
1
1
1
1
1
1
1
1
1
1
1
1
1
1
1
1
1
1
1
1
1
1
1
1
1
1
1
1
1
1
1
1
1
1
1
1
1
1
1
1
1
1
1
1
1
1
1
1
1
1.00012
1
1
1
1
1
1
1
1
1
1
1
1
1
1
1
1
1
1
1
1
1
1
1
1
1
1
1
1
1
1
1
1
1
1
1
1
1
1
1
1
1
1
1
1
1
1
1
1
1
1
1
1
1
1
1
1
1
1
1
1
1
1
1
1
1
1
1
1
1
1
1
1
1
1
1
1
1
1
1
1
1
1
1
1
1
1
1
1
1
1
1
1
1
1
1
1
1
1
1
1
1
1
1
1
1
1
1
1
1
1
1
1
1
1
1
1
1
1
1
1
1
1
1
1
1
1
1
1
1
1
1
1
1
1
1
1
1
1
1
1
1
1
1
1
1
1
1
1
1
1
1
1
1
1
1
1
1
1
1
1
)
;

boundaryField
{
    inlet
    {
        type            fixedValue;
        value           uniform 1;
    }
    outlet
    {
        type            zeroGradient;
    }
    bottom
    {
        type            symmetryPlane;
    }
    top
    {
        type            symmetryPlane;
    }
    obstacle
    {
        type            zeroGradient;
    }
    defaultFaces
    {
        type            empty;
    }
}


// ************************************************************************* //
