/*--------------------------------*- C++ -*----------------------------------*\
| =========                 |                                                 |
| \\      /  F ield         | OpenFOAM: The Open Source CFD Toolbox           |
|  \\    /   O peration     | Version:  2206                                  |
|   \\  /    A nd           | Website:  www.openfoam.com                      |
|    \\/     M anipulation  |                                                 |
\*---------------------------------------------------------------------------*/
FoamFile
{
    version     2.0;
    format      ascii;
    arch        "LSB;label=32;scalar=64";
    class       volScalarField;
    location    "0.16";
    object      T;
}
// * * * * * * * * * * * * * * * * * * * * * * * * * * * * * * * * * * * * * //

dimensions      [0 0 0 1 0 0 0];

internalField   nonuniform List<scalar> 
4800
(
1
1
1
1
1
1
1
1
1
1
1
1
1
1
1
1
1
1
1
1
1
1
1
1
1
1
1
1
1
1
1
1
1
1
1
1
1
1
1
1
1
1
1
1
1
1
1
1
1
1
1
1
1
1
1
1
1
1
1
1
1
1
1
1
1
1
1
1
1
1
1
1
1
1
1
1
1
1
1
1
1
1
1
1
1
1
1
1
1
1
1
1
1
1
1
1
1
1
1
1
1
1
1
1
1
1
1
1
1
1
1
1
1
1
1
1
1
1
1
1
1
1
1
1
1
1
1
1
1
1
1
1
1
1
1
1
1
1
1
1
1
1
1
1
1
1
1
1
1
1
1
1
1
1
1
1
1
1
1
1
1
1
1
1
1
1
1
1
1
1
1
1
1
1
1
1
1
1
1
1
1
1
1
1
1
1
1
1
1
1
1
1
1
1
1
1
1
1
1
1
1
1
1
1
1
1
1
1
1
1
1
1
1
1
1
1
1
1
1
1
1
1
1
1
1
1
1
1
1
1
1
1
1
1
1
1
1
1
1
1
1
1
1
1
1
1
1
1
1
1
1
1
1
1
1
1
1
1
1
1
1
1
1
1
1
1
1
1
1
1
1
1
1
1
1
1
1
1
1
1
1
1
1
1
1
1
1
1
1
1
1
1
1
1
1
1
1
1
1
1
1
1
1
1
1
1
1
1
1
1
1
1
1
1
1
1
1
1
1
1
1
1
1
1
1
1
1
1
1
1
1
1
1
1
1
1
1
1
1
1
1
1
1
1
1
1
1
1
1
1
1
1
1
1
1
1
1
1
1
1
1
1
1
1
1
1
1
1
1
1
1
1
1
1
1
1
1
1
1
1
1
1
1
1
1
1
1
1
1
1
1
1
1
1
1
1
1
1
1
1
1
1
1
1
1
1
1
1
1
1
1
1
1
1
1
1
1
1
1
1
1
1
1
1
1
1
1
1
1
1
1
1
1
1
1
1
1
1
1
1
1
1
1
1
1
1
1
1
1
1
1
1
1
1
1
1
1
1
1
1
1
1
1
1
1
1
1
1
1
1
1
1
1
1
1
1
1
1
1
1
1
1
1
1
1
1
1
1
1
1
1
1
1
1
1
1
1
1
1
1
1
1
1
1
1
1
1
1
1
1
1
1
1
1
1
1
1
1
1
1
1
1
1
1
1
1
1
1
1
1
1
1
1
1
1
1
1
1
1
1
1
1
1
1
1
1
1
1
1
1
1
1
1
1
1
1
1
1
1
1
1
1
1
1
1
1
1
1
1
1
1
1
1
1
1
1
1
1
1
1
1
1
1
1
1
1
1
1
1
1
1
1
1
1
1
1
1
1
1
1
1
1
1
1
1
1
1
1
1
1
1
1
1
1
1
1
1
1
1
1
1
1
1
1
1
1
1
1
1
1
1
1
1
1
1
1
1
1
1
1
1
1
1
1
1
1
1
1
1
1
1
1
1
1
1
1
1
1
1
1
1
1
1
1
1
1
1
1
1
1
1
1
1
1
1
1
1
1
1
1
1
1
1
1
1
1
1
1
1
1
1
1
1
1
1
1
1
1
1
1
1
1
1
1
1
1
1
1
1
1
1
1
1
1
1
1
1
1
1
1
1
1
1
1
1
1
1
1
1
1
1
1
1
1
1
1
1
1
1
1
1
1
1
1
1
1
1
1
1
1
1
1
1
1
1
1
1
1
1
1
1
1
1
1
1
1
1
1
1
1
1
1
1
1
1
1
1
1
1
1
1
1
1
1
1
1
1
1
1
1
1
1
1
1
1
1
1
1
1
1
1
1
1
1
1
1
1
1
1
1
1
1
1
1
1
1
1
1
1
1
1
1
1
1
1
1
1
1
1
1
1
1
1
1
1
1
1
1
1
1
1
1
1
1
1
1
1
1
1
1
1
1
1
1
1
1
1
1
1
1
1
1
1
1
1
1
1
1
1
1
1
1
1
1
1
1
1
1
1
1
1
1
1
1
1
1
1
1
1
1
1
1
1
1
1
1
1
1
1
1
1
1
1
1
1
1
1
1
1
1
1
1
1
1
1
1
1
1
1
1
1
1
1
1
1
1
1
1
1
1
1
1
1
1
1
1
1
1
1
1
1
1
1
1
1
1
1
1
1
1
1
1
1
1
1
1
1
1
1
1
1
1
1
1
1
1
1
1
1
1
1
1
1
1
1
1
1
1
1
1
1
1
1
1
1
1
1
1
1
1
1
1
1
1
1
1
1
1
1
1
1
1
1
1
1
1
1
1
1
1
1
1
1
1
1
1
1
1
1
1
1
1
1
1
1
1
1
1
1
1
1
1
1
1
1
1
1
1
1
1
1
1
1
1
1
1
1
1
1
1
1
1
1
1
1
1
1
1
1
1
1
1
1
1
1
1
1
1
1
1
1
1
1
1
1
1
1
1
1
1
1
1
1
1
1
1
1
1
1
1
1
1
1
1
1
1
1
1
1
1
1
1
1
1
1
1
1
1
1
1
1
1
1
1
1
1
1
1
1
1
1
1
1
1
1
1
1
1
1
1
1
1
1
1
1
1
1
1
1
1
1
1
1
1
1
1
1
1
1
1
1
1
1
1
1
1
1
1
1
1
1
1
1
1
1
1
1
1
1
1
1
1
1
1
1
1
1
1
1
1
1
1
1
1
1
1
1
1
1
1
1
1
1
1
1
1
1
1
1
1
1
1
1
1
1
1
1
1
1
1
1
1
1
1
1
1
1
1
1
1
1
1
1
1
1
1
1
1
1
1
1
1
1
1
1
1
1
1
1
1
1
1
1
1
1
1
1
1
1
1
1
1
1
1
1
1
1
1
1
1
1
1
1
1
1
1
1
1
1
1
1
1
1
1
1
1
1
1
1
1
1
1
1
1
1
1
1
1
1
1
1
1
1
1
1
1
1
1
1
1
1
1
1
1
1
1
1
1
1
1
1
1
1
1
1
1
1
1
1
1
1
1
1
1
1
1
1
1
1
1
1
1
1
1
1
1
1
1
1
1
1
1
1
1
1
1
1
1
1
1
1
1
1
1
1
1
1
1
1
1
1
1
1
1
1
1
1
1
1
1
1
1
1
1
1
1
1
1
1
1
1
1
1
1
1
1
1
1
1
1
1
1
1
1
1
1
1
1
1
1
1
1
1
1
1
1
1
1
1
1
1
1
1
1
1
1
1
1
1
1
1
1
1
1
1
1
1
1
1
1
1
1
1
1
1
1
1
1
1
1
1
1
1
1
1
1
1
1
1
1
1
1
1
1
1
1
1
1
1
1
1
1
1
1
1
1
1
1
1
1
1
1
1
1
1
1
1
1
1
1
1
1
1
1
1
1
1
1
1
1
1
1
1
1
1
1
1
1
1
1
1
1
1
1
1
1
1
1
1
1
1
1
1
1
1
1
1
1
1
1
1
1
1
1
1
1
1
1
1
1
1
1
1
1
1
1
1
1
1
1
1
1
1
1
1
1
1
1
1
1
1
1
1
1
1
1
1
1
1
1
1
1
1
1
1
1
1
1
1
1
1
1
1
1
1
1
1
1
1
1
1
1
1
1
1
1
1
1
1
1
1
1
1
1
1
1
1
1
1
1
1.06974
1.16133
1.2562
1.36057
1.45796
1.53233
1.61274
1.7307
1.82971
1.87505
1.91411
1.98259
2.0593
2.06999
2.0681
2.06783
2.06245
2.0454
2.00626
1.95172
1.91114
1.87592
1.8409
1.81466
1.81329
1.81407
1.80952
1.80705
1.811
1.82293
1.83913
1.8458
1.84494
1.84657
1.85196
1.85921
1.86345
1.86441
1.86504
1.86582
1.86633
1.86665
1.86617
1.86363
1.86049
1.86
1.86161
1.86894
1.87662
1.87911
1.87883
1.87559
1.87054
1.86675
1.86489
1.86404
1.8641
1.86606
1.87117
1.87674
1.8808
1.88289
1.88303
1.88159
1.87817
1.87264
1.86715
1.86457
1.86458
1.86677
1.87189
1.87867
1.88314
1.88512
1.88636
1.8871
1.88675
1.88541
1.8835
1.87794
1
1
0.999939
0.999318
1.00754
1.05516
1.07908
1.11216
1.21798
1.34195
1.40192
1.45964
1.56299
1.64169
1.67688
1.72082
1.76314
1.79713
1.80071
1.82493
1.89851
1.90922
1.90255
1.89651
1.89737
1.89937
1.89587
1.88284
1.86984
1.86785
1.8642
1.85791
1.85021
1.84922
1.85221
1.85981
1.86556
1.86587
1.8664
1.86849
1.87277
1.87445
1.87406
1.87284
1.87235
1.87139
1.8709
1.87121
1.87233
1.87541
1.87767
1.87792
1.87729
1.87733
1.87794
1.8778
1.87655
1.87474
1.87384
1.87382
1.87495
1.87815
1.88158
1.88264
1.88186
1.88047
1.87941
1.87758
1.87686
1.87797
1.8798
1.87999
1.87952
1.87905
1.87938
1.88064
1.88337
1.88517
1.88454
1.88292
1
1
1
1
0.999999
1
1
0.999997
0.999999
1
0.999437
1.00237
1.02817
1.11091
1.18556
1.30447
1.46892
1.61903
1.76155
1.87795
1.97591
1.99715
1.98896
1.98713
1.98467
1.97974
1.97148
1.95342
1.93121
1.90445
1.89429
1.87997
1.87277
1.87296
1.87684
1.88253
1.88499
1.88446
1.88333
1.88442
1.88748
1.89065
1.89274
1.89328
1.8932
1.89316
1.89222
1.88869
1.88589
1.88514
1.8853
1.88788
1.89323
1.89683
1.89726
1.8964
1.89409
1.89094
1.8873
1.88412
1.88249
1.88209
1.88302
1.88793
1.89285
1.89464
1.89458
1.89341
1.89277
1.89258
1.89206
1.89051
1.88767
1.88342
1.88024
1.87934
1.88012
1.88495
1.89182
1.8947
1
1
1
1
1
1
1
1
1
1
1
1
1
1
1
0.999497
1.00392
1.033
1.17095
1.36251
1.55993
1.74761
1.82743
1.91621
1.95276
1.95814
1.95746
1.93963
1.93426
1.94482
1.9559
1.95005
1.93637
1.93417
1.93419
1.93097
1.92371
1.9092
1.89513
1.89205
1.89332
1.89898
1.9102
1.91854
1.9202
1.92035
1.9192
1.91411
1.90722
1.90268
1.90092
1.90135
1.90527
1.91314
1.91842
1.91897
1.91747
1.91356
1.90801
1.90232
1.89771
1.89533
1.89541
1.89734
1.90128
1.90573
1.90897
1.91059
1.91067
1.90946
1.90713
1.90335
1.8976
1.89134
1.88822
1.8883
1.88931
1.8912
1.89577
1.90285
1
1
1
1
1
1
1
1
1
1
1
1
1
1
1
1
1
1
1
0.999432
1.00331
1.08566
1.23246
1.39587
1.59903
1.75795
1.89913
1.9514
1.97188
1.99924
1.99966
1.99572
1.9912
1.98595
1.97904
1.96834
1.94989
1.93432
1.92069
1.91649
1.91676
1.91985
1.92748
1.93622
1.93821
1.93781
1.93583
1.93188
1.92612
1.92275
1.92198
1.92271
1.92447
1.92715
1.93077
1.93329
1.93345
1.93129
1.92575
1.92088
1.91761
1.91458
1.91357
1.91388
1.91478
1.91625
1.91804
1.92015
1.9222
1.92284
1.92149
1.91767
1.91399
1.91067
1.90662
1.90533
1.90532
1.90553
1.90653
1.90898
1
1
1
1
1
1
1
1
1
1
1
1
1
1
1
1
1
1
1
1
1
1
0.999976
0.999271
1.02694
1.12065
1.26737
1.50001
1.65366
1.78956
1.86014
1.89959
1.94194
1.94732
1.95412
1.96116
1.96489
1.96104
1.95416
1.94795
1.94328
1.94048
1.93973
1.93843
1.93693
1.93411
1.93271
1.93357
1.93405
1.93463
1.93757
1.93947
1.93997
1.93896
1.93657
1.93595
1.93645
1.93815
1.93979
1.94005
1.9396
1.93766
1.93414
1.93232
1.93185
1.93057
1.92799
1.92639
1.9261
1.92705
1.93013
1.9319
1.93179
1.92997
1.92753
1.92638
1.92556
1.92356
1.92216
1.92077
1
1
1
1
1
1
1
1
1
1
1
1
1
1
1
1
1
1
1
1
1
1
1
1
1
1
0.999528
1.00559
1.03966
1.13454
1.36503
1.55292
1.68985
1.79416
1.86768
1.94238
1.96267
1.9662
1.96662
1.96466
1.95948
1.95157
1.93933
1.9293
1.92741
1.92749
1.92933
1.9338
1.94142
1.94635
1.94724
1.94622
1.94219
1.93789
1.93406
1.93271
1.93289
1.93594
1.94403
1.94956
1.95068
1.95095
1.95091
1.94974
1.94401
1.93627
1.9306
1.92849
1.92834
1.92908
1.93295
1.93802
1.9404
1.94169
1.94203
1.94159
1.94094
1.93926
1.93493
1.92869
1
1
1
1
1
1
1
1
1
1
1
1
1
1
1
1
1
1
1
1
1
1
1
1
1
1
1
1
1
0.999784
1.00067
1.01667
1.0752
1.27402
1.44216
1.60904
1.72117
1.8064
1.89919
1.92735
1.93176
1.93447
1.93397
1.92529
1.92021
1.92075
1.92577
1.93406
1.94215
1.94374
1.94354
1.94444
1.94415
1.93661
1.92876
1.92739
1.92848
1.93246
1.93824
1.94527
1.94999
1.95225
1.95303
1.95284
1.95147
1.94661
1.93912
1.9333
1.93236
1.93396
1.93652
1.93728
1.93851
1.9414
1.94524
1.94782
1.94811
1.94611
1.9426
1.93824
1
1
1
1
1
1
1
1
1
1
1
1
1
1
1
1
1
1
1
1
1
1
1
1
1
1
1
1
1
1
1
1
1
0.999522
1.00315
1.03891
1.18826
1.34674
1.53511
1.68521
1.80442
1.89347
1.91388
1.91819
1.91856
1.91789
1.92066
1.92556
1.9283
1.93041
1.93199
1.93344
1.93417
1.9347
1.93251
1.92772
1.92591
1.92664
1.92956
1.93365
1.93687
1.93998
1.94371
1.94679
1.94721
1.9455
1.94472
1.94358
1.94195
1.94159
1.94064
1.93925
1.93851
1.93902
1.93987
1.94108
1.94272
1.94376
1.94454
1.94375
1
1
1
1
1
1
1
1
1
1
1
1
1
1
1
1
1
1
1
1
1
1
1
1
1
1
1
1
1
1
1
1
1
1
1
1
0.999717
1.00039
1.02969
1.1726
1.3163
1.49057
1.63141
1.7732
1.86279
1.87182
1.87949
1.89004
1.88768
1.89291
1.90231
1.91314
1.92419
1.92894
1.92892
1.92853
1.92952
1.92978
1.92601
1.92187
1.92193
1.92332
1.92552
1.92797
1.9332
1.93816
1.94
1.94138
1.94614
1.94956
1.94913
1.94523
1.9371
1.9326
1.93238
1.93331
1.93494
1.93655
1.9389
1.9428
1
1
1
1
1
1
1
1
1
1
1
1
1
1
1
1
1
1
1
1
1
1
1
1
1
1
1
1
1
1
1
1
1
1
1
1
1
1
1
0.999991
1.00006
1.01985
1.10966
1.25609
1.46957
1.63223
1.76963
1.84012
1.86054
1.86704
1.87492
1.88472
1.90077
1.91652
1.9204
1.92154
1.92324
1.92609
1.92628
1.92447
1.91792
1.91155
1.91094
1.91443
1.91745
1.92011
1.92348
1.9306
1.94037
1.94552
1.94567
1.94389
1.93929
1.93148
1.92816
1.9278
1.92867
1.93081
1.93341
1.93842
1
1
1
1
1
1
1
1
1
1
1
1
1
1
1
1
1
1
1
1
1
1
1
1
1
1
1
1
1
1
1
1
1
1
1
1
1
1
1
1
1
1
0.99996
0.999742
1.02251
1.12339
1.25905
1.44672
1.63229
1.79855
1.82997
1.83249
1.84403
1.86579
1.88098
1.89285
1.90585
1.91599
1.91757
1.91599
1.91468
1.91443
1.91315
1.91052
1.90762
1.90676
1.9083
1.91225
1.92081
1.93015
1.93421
1.93377
1.93038
1.93017
1.93116
1.93085
1.92918
1.92748
1.92751
1.93256
1
1
1
1
1
1
1
1
1
1
1
1
1
1
1
1
1
1
1
1
1
1
1
1
1
1
1
1
1
1
1
1
1
1
1
1
1
1
1
1
1
1
1
1
1
0.999905
1.00005
1.02153
1.10548
1.30102
1.49615
1.65123
1.76156
1.81287
1.83481
1.84648
1.85698
1.87825
1.89984
1.90471
1.90671
1.90882
1.91307
1.91756
1.91594
1.90817
1.89942
1.89867
1.90387
1.90842
1.9101
1.91134
1.91499
1.92048
1.92375
1.92691
1.92883
1.92964
1.92989
1.92939
1
1
1
1
1
1
1
1
1
1
1
1
1
1
1
1
1
1
1
1
1
1
1
1
1
1
1
1
1
1
1
1
1
1
1
1
1
1
1
1
1
1
1
1
1
1
1
1
0.999783
1.00159
1.0438
1.12718
1.29808
1.51644
1.75788
1.82611
1.81958
1.82635
1.85008
1.86504
1.87126
1.88582
1.90278
1.91003
1.9086
1.9043
1.90228
1.90054
1.8994
1.89814
1.89744
1.89797
1.89923
1.90328
1.91251
1.92021
1.92256
1.92352
1.92499
1.92592
1
1
1
1
1
1
1
1
1
1
1
1
1
1
1
1
1
1
1
1
1
1
1
1
1
1
1
1
1
1
1
1
1
1
1
1
1
1
1
1
1
1
1
1
1
1
1
1
1
0.999997
1.00001
0.999839
1.00429
1.05546
1.23772
1.46448
1.62251
1.72603
1.80352
1.82791
1.83839
1.84611
1.86637
1.88802
1.8951
1.89541
1.89732
1.90128
1.90854
1.91
1.90502
1.89435
1.88913
1.89142
1.89833
1.90308
1.90539
1.90856
1.91349
1.91785
1
1
1
1
1
1
1
1
1
1
1
1
1
1
1
1
1
1
1
1
1
1
1
1
1
1
1
1
1
1
1
1
1
1
1
1
1
1
1
1
1
1
1
1
1
1
1
1
1
1
1
0.999998
1
0.999917
1.00082
1.03315
1.1177
1.25781
1.48133
1.75532
1.85025
1.84102
1.84243
1.85523
1.86335
1.85978
1.86601
1.88627
1.90359
1.9062
1.90154
1.89648
1.89442
1.89474
1.89455
1.89473
1.89539
1.89642
1.89869
1.90518
1
1
1
1
1
1
1
1
1
1
1
1
1
1
1
1
1
1
1
1
1
1
1
1
1
1
1
1
1
1
1
1
1
1
1
1
1
1
1
1
1
1
1
1
1
1
1
1
1
1
1
1
1
0.999999
0.999996
1.00003
0.999989
1.00343
1.04598
1.26568
1.54897
1.70074
1.77974
1.8395
1.85463
1.84775
1.84419
1.85821
1.88053
1.8909
1.89042
1.88976
1.89296
1.90009
1.90612
1.90511
1.89826
1.89131
1.8909
1.89425
1
1
1
1
1
1
1
1
1
1
1
1
1
1
1
1
1
1
1
1
1
1
1
1
1
1
1
1
1
1
1
1
1
1
1
1
1
1
1
1
1
1
1
1
1
1
1
1
1
1
1
1
1
1
1
1
0.999999
1
0.999958
1.00331
1.07629
1.22982
1.38014
1.58625
1.80672
1.86759
1.8622
1.87415
1.87186
1.87043
1.86429
1.85905
1.86961
1.89287
1.90502
1.90304
1.8966
1.89306
1.89293
1.89227
1
1
1
1
1
1
1
1
1
1
1
1
1
1
1
1
1
1
1
1
1
1
1
1
1
1
1
1
1
1
1
1
1
1
1
1
1
1
1
1
1
1
1
1
1
1
1
1
1
1
1
1
1
1
1
1
1
1
0.999999
0.999993
1.00008
1.00161
1.01891
1.1005
1.38015
1.66529
1.80698
1.85461
1.8724
1.87094
1.86802
1.85864
1.86318
1.87797
1.88965
1.89083
1.88584
1.88659
1.89118
1.89588
1
1
1
1
1
1
1
1
1
1
1
1
1
1
1
1
1
1
1
1
1
1
1
1
1
1
1
1
1
1
1
1
1
1
1
1
1
1
1
1
1
1
1
1
1
1
1
1
1
1
1
1
1
1
1
1
1
1
1
1
1
1
0.999979
1.00026
1.02127
1.22878
1.44441
1.58704
1.75995
1.86498
1.88684
1.88272
1.89459
1.89217
1.88323
1.87548
1.86664
1.8654
1.87754
1.89145
1
1
1
1
1
1
1
1
1
1
1
1
1
1
1
1
1
1
1
1
1
1
1
1
1
1
1
1
1
1
1
1
1
1
1
1
1
1
1
1
1
1
1
1
1
1
1
1
1
1
1
1
1
1
1
1
1
1
1
1
1
1
0.999999
0.999998
0.999991
1.00302
1.03193
1.15033
1.34199
1.63523
1.78758
1.86293
1.8946
1.89444
1.89085
1.88519
1.87681
1.87521
1.88179
1.88547
1
1
1
1
1
1
1
1
1
1
1
1
1
1
1
1
1
1
1
1
1
1
1
1
1
1
1
1
1
1
1
1
1
1
1
1
1
1
1
1
1
1
1
1
1
1
1
1
1
1
1
1
1
1
1
1
1
1
1
1
1
1
1
1
1
1
1
1.00104
1.01395
1.18051
1.52422
1.69729
1.79132
1.865
1.88183
1.88949
1.89376
1.90033
1.90583
1.89663
1
1
1
1
1
1
1
1
1
1
1
1
1
1
1
1
1
1
1
1
1
1
1
1
1
1
1
1
1
1
1
1
1
1
1
1
1
1
1
1
1
1
1
1
1
1
1
1
1
1
1
1
1
1
1
1
1
1
1
1
1
1
1
1
1
1
1
0.999998
0.999999
1.00343
1.07472
1.31634
1.51309
1.71161
1.79741
1.83443
1.87565
1.90392
1.905
1.90027
1
1
1
1
1
1
1
1
1
1
1
1
1
1
1
1
1
1
1
1
1
1
1
1
1
1
1
1
1
1
1
1
1
1
1
1
1
1
1
1
1
1
1
1
1
1
1
1
1
1
1
1
1
1
1
1
1
1
1
1
1
1
1
1
1
1
1
1
1
0.999993
1.0004
1.01391
1.07397
1.28976
1.61882
1.7754
1.83577
1.87251
1.88171
1.8832
1
1
1
1
1
1
1
1
1
1
1
1
1
1
1
1
1
1
1
1
1
1
1
1
1
1
1
1
1
1
1
1
1
1
1
1
1
1
1
1
1
1
1
1
1
1
1
1
1
1
1
1
1
1
1
1
1
1
1
1
1
1
1
1
1
1
1
1
1
0.999999
1
0.999993
1.00039
1.01207
1.14328
1.50148
1.74572
1.86533
1.85765
1.84612
1
1
1
1
1
1
1
1
1
1
1
1
1
1
1
1
1
1
1
1
1
1
1
1
1
1
1
1
1
1
1
1
1
1
1
1
1
1
1
1
1
1
1
1
1
1
1
1
1
1
1
1
1
1
1
1
1
1
1
1
1
1
1
1
1
1
1
1
1
1
1
1
0.999998
1.00001
1.00291
1.10078
1.32452
1.58751
1.78718
1.86219
1
1
1
1
1
1
1
1
1
1
1
1
1
1
1
1
1
1
1
1
1
1
1
1
1
1
1
1
1
1
1
1
1
1
1
1
1
1
1
1
1
1
1
1
1
1
1
1
1
1
1
1
1
1
1
1
1
1
1
1
1
1
1
1
1
1
1
1
1
1
1
1
1
1
0.999997
1.00113
1.02127
1.13177
1.42457
1.79494
1
1
1
1
1
1
1
1
1
1
1
1
1
1
1
1
1
1
1
1
1
1
1
1
1
1
1
1
1
1
1
1
1
1
1
1
1
1
1
1
1
1
1
1
1
1
1
1
1
1
1
1
1
1
1
1
1
1
1
1
1
1
1
1
1
1
1
1
1
1
1
1
1
1
1
0.999998
1.00003
1.00225
1.047
1.58049
1
1
1
1
1
1
1
1
1
1
1
1
1
1
1
1
1
1
1
1
1
1
1
1
1
1
1
1
1
1
1
1
1
1
1
1
1
1
1
1
1
1
1
1
1
1
1
1
1
1
1
1
1
1
1
1
1
1
1
1
1
1
1
1
1
1
1
1
1
1
1
1
1
1
1
1
1
0.999999
1.00065
1.17893
1
1
1
1
1
1
1
1
1
1
1
1
1
1
1
1
1
1
1
1
1
1
1
1
1
1
1
1
1
1
1
1
1
1
1
1
1
1
1
1
1
1
1
1
1
1
1
1
1
1
1
1
1
1
1
1
1
1
1
1
1
1
1
1
1
1
1
1
1
1
1
1
1
1
1
1
1
1
1
1.01242
1
1
1
1
1
1
1
1
1
1
1
1
1
1
1
1
1
1
1
1
1
1
1
1
1
1
1
1
1
1
1
1
1
1
1
1
1
1
1
1
1
1
1
1
1
1
1
1
1
1
1
1
1
1
1
1
1
1
1
1
1
1
1
1
1
1
1
1
1
1
1
1
1
1
1
1
1
1
1
1.00025
1
1
1
1
1
1
1
1
1
1
1
1
1
1
1
1
1
1
1
1
1
1
1
1
1
1
1
1
1
1
1
1
1
1
1
1
1
1
1
1
1
1
1
1
1
1
1
1
1
1
1
1
1
1
1
1
1
1
1
1
1
1
1
1
1
1
1
1
1
1
1
1
1
1
1
1
1
1
1
1
1
1
1
1
1
1
1
1
1
1
1
1
1
1
1
1
1
1
1
1
1
1
1
1
1
1
1
1
1
1
1
1
1
1
1
1
1
1
1
1
1
1
1
1
1
1
1
1
1
1
1
1
1
1
1
1
1
1
1
1
1
1
1
1
1
1
1
1
1
1
1
1
1
1
1
1
1
1
1
1
1
1
1
1
1
1
1
1
1
1
1
1
1
1
1
1
1
1
1
1
1
1
1
1
1
1
1
1
1
1
1
1
1
1
1
1
1
1
1
1
1
1
1
1
1
1
1
1
1
1
1
1
1
1
1
1
1
1
1
1
1
1
1
1
1
1
1
1
1
1
1
1
1
1
1
1
1
1
1
1
1
1
1
1
1
1
1
1
1
1
1
1
1
1
1
1
1
1
1
1
1
1
1
1
1
1
1
1
1
1
1
1
1
1
1
1
1
1
1
1
1
1
1
1
1
1
1
1
1
1
1
1
1
1
1
1
1
1
1
1
1
1
1
1
1
1
1
1
1
1
1
1
1
1
1
1
1
1
1
1
1
1
1
1
1
1
1
1
1
1
1
1
1
1
1
1
1
1
1
1
1
1
1
1
1
1
1
1
1
1
1
1
1
1
1
1
1
1
1
1
1
1
1
1
1
1
1
1
1
1
1
1
1
1
1
1
1
1
1
1
1
1
1
1
1
1
1
1
1
1
1
1
1
1
1
1
1
1
1
1
1
1
1
1
1
1
1
1
1
1
1
1
1
1
1
1
1
1
1
1
1
1
1
1
1
1
1
1
1
1
1
1
1
1
1
1
1
1
1
1
1
1
1
1
1
1
1
1
1
1
1
1
1
1
1
1
1
1
1
1
1
1
1
1
1
1
1
1
1
1
1
1
1
1
1
1
1
1
1
1
1
1
1
1
1
1
1
1
1
1
1
1
1
1
1
1
1
1
1
1
1
1
1
1
1
1
1
1
1
1
1
1
1
1
1
1
1
1
1
1
1
1
1
1
1
1
1
1
1
1
1
1
1
1
1
1
1
1
1
1
1
1
1
1
1
1
1
1
1
1
1
1
1
1
1
1
1
1
1
1
1
1
1
1
1
1
1
1
1
1
1
1
1
1
1
1
1
1
1
1
1
1
1
1
1
1
1
1
1
1
1
1
1
1
1
1
1
1
1
1
1
1
1
1
1
1
1
1
1
1
1
1
1
1
1
1
1
1
1
1
1
1
1
1
1
1
1
1
1
1
1
1
1
1
1
1
1
1
1
1
1
1
1
1
1
1
1
1
1
1
1
1
1
1
1
1
1
1
1
1
1
1
1
1
1
1
1
1
1
1
1
1
1
1
1
1
1
1
1
1
1
1
1
1
1
1
1
1
1
1
1
1
1
1
1
1
1
1
1
1
1
1
1
1
1
1
1
1
1
1
1
1
1
1
1
1
1
1
1
1
)
;

boundaryField
{
    inlet
    {
        type            fixedValue;
        value           uniform 1;
    }
    outlet
    {
        type            zeroGradient;
    }
    bottom
    {
        type            symmetryPlane;
    }
    top
    {
        type            symmetryPlane;
    }
    obstacle
    {
        type            zeroGradient;
    }
    defaultFaces
    {
        type            empty;
    }
}


// ************************************************************************* //
