/*--------------------------------*- C++ -*----------------------------------*\
| =========                 |                                                 |
| \\      /  F ield         | OpenFOAM: The Open Source CFD Toolbox           |
|  \\    /   O peration     | Version:  2206                                  |
|   \\  /    A nd           | Website:  www.openfoam.com                      |
|    \\/     M anipulation  |                                                 |
\*---------------------------------------------------------------------------*/
FoamFile
{
    version     2.0;
    format      ascii;
    arch        "LSB;label=32;scalar=64";
    class       volScalarField;
    location    "0.14";
    object      T;
}
// * * * * * * * * * * * * * * * * * * * * * * * * * * * * * * * * * * * * * //

dimensions      [0 0 0 1 0 0 0];

internalField   nonuniform List<scalar> 
4800
(
1
1
1
1
1
1
1
1
1
1
1
1
1
1
1
1
1
1
1
1
1
1
1
1
1
1
1
1
1
1
1
1
1
1
1
1
1
1
1
1
1
1
1
1
1
1
1
1
1
1
1
1
1
1
1
1
1
1
1
1
1
1
1
1
1
1
1
1
1
1
1
1
1
1
1
1
1
1
1
1
1
1
1
1
1
1
1
1
1
1
1
1
1
1
1
1
1
1
1
1
1
1
1
1
1
1
1
1
1
1
1
1
1
1
1
1
1
1
1
1
1
1
1
1
1
1
1
1
1
1
1
1
1
1
1
1
1
1
1
1
1
1
1
1
1
1
1
1
1
1
1
1
1
1
1
1
1
1
1
1
1
1
1
1
1
1
1
1
1
1
1
1
1
1
1
1
1
1
1
1
1
1
1
1
1
1
1
1
1
1
1
1
1
1
1
1
1
1
1
1
1
1
1
1
1
1
1
1
1
1
1
1
1
1
1
1
1
1
1
1
1
1
1
1
1
1
1
1
1
1
1
1
1
1
1
1
1
1
1
1
1
1
1
1
1
1
1
1
1
1
1
1
1
1
1
1
1
1
1
1
1
1
1
1
1
1
1
1
1
1
1
1
1
1
1
1
1
1
1
1
1
1
1
1
1
1
1
1
1
1
1
1
1
1
1
1
1
1
1
1
1
1
1
1
1
1
1
1
1
1
1
1
1
1
1
1
1
1
1
1
1
1
1
1
1
1
1
1
1
1
1
1
1
1
1
1
1
1
1
1
1
1
1
1
1
1
1
1
1
1
1
1
1
1
1
1
1
1
1
1
1
1
1
1
1
1
1
1
1
1
1
1
1
1
1
1
1
1
1
1
1
1
1
1
1
1
1
1
1
1
1
1
1
1
1
1
1
1
1
1
1
1
1
1
1
1
1
1
1
1
1
1
1
1
1
1
1
1
1
1
1
1
1
1
1
1
1
1
1
1
1
1
1
1
1
1
1
1
1
1
1
1
1
1
1
1
1
1
1
1
1
1
1
1
1
1
1
1
1
1
1
1
1
1
1
1
1
1
1
1
1
1
1
1
1
1
1
1
1
1
1
1
1
1
1
1
1
1
1
1
1
1
1
1
1
1
1
1
1
1
1
1
1
1
1
1
1
1
1
1
1
1
1
1
1
1
1
1
1
1
1
1
1
1
1
1
1
1
1
1
1
1
1
1
1
1
1
1
1
1
1
1
1
1
1
1
1
1
1
1
1
1
1
1
1
1
1
1
1
1
1
1
1
1
1
1
1
1
1
1
1
1
1
1
1
1
1
1
1
1
1
1
1
1
1
1
1
1
1
1
1
1
1
1
1
1
1
1
1
1
1
1
1
1
1
1
1
1
1
1
1
1
1
1
1
1
1
1
1
1
1
1
1
1
1
1
1
1
1
1
1
1
1
1
1
1
1
1
1
1
1
1
1
1
1
1
1
1
1
1
1
1
1
1
1
1
1
1
1
1
1
1
1
1
1
1
1
1
1
1
1
1
1
1
1
1
1
1
1
1
1
1
1
1
1
1
1
1
1
1
1
1
1
1
1
1
1
1
1
1
1
1
1
1
1
1
1
1
1
1
1
1
1
1
1
1
1
1
1
1
1
1
1
1
1
1
1
1
1
1
1
1
1
1
1
1
1
1
1
1
1
1
1
1
1
1
1
1
1
1
1
1
1
1
1
1
1
1
1
1
1
1
1
1
1
1
1
1
1
1
1
1
1
1
1
1
1
1
1
1
1
1
1
1
1
1
1
1
1
1
1
1
1
1
1
1
1
1
1
1
1
1
1
1
1
1
1
1
1
1
1
1
1
1
1
1
1
1
1
1
1
1
1
1
1
1
1
1
1
1
1
1
1
1
1
1
1
1
1
1
1
1
1
1
1
1
1
1
1
1
1
1
1
1
1
1
1
1
1
1
1
1
1
1
1
1
1
1
1
1
1
1
1
1
1
1
1
1
1
1
1
1
1
1
1
1
1
1
1
1
1
1
1
1
1
1
1
1
1
1
1
1
1
1
1
1
1
1
1
1
1
1
1
1
1
1
1
1
1
1
1
1
1
1
1
1
1
1
1
1
1
1
1
1
1
1
1
1
1
1
1
1
1
1
1
1
1
1
1
1
1
1
1
1
1
1
1
1
1
1
1
1
1
1
1
1
1
1
1
1
1
1
1
1
1
1
1
1
1
1
1
1
1
1
1
1
1
1
1
1
1
1
1
1
1
1
1
1
1
1
1
1
1
1
1
1
1
1
1
1
1
1
1
1
1
1
1
1
1
1
1
1
1
1
1
1
1
1
1
1
1
1
1
1
1
1
1
1
1
1
1
1
1
1
1
1
1
1
1
1
1
1
1
1
1
1
1
1
1
1
1
1
1
1
1
1
1
1
1
1
1
1
1
1
1
1
1
1
1
1
1
1
1
1
1
1
1
1
1
1
1
1
1
1
1
1
1
1
1
1
1
1
1
1
1
1
1
1
1
1
1
1
1
1
1
1
1
1
1
1
1
1
1
1
1
1
1
1
1
1
1
1
1
1
1
1
1
1
1
1
1
1
1
1
1
1
1
1
1
1
1
1
1
1
1
1
1
1
1
1
1
1
1
1
1
1
1
1
1
1
1
1
1
1
1
1
1
1
1
1
1
1
1
1
1
1
1
1
1
1
1
1
1
1
1
1
1
1
1
1
1
1
1
1
1
1
1
1
1
1
1
1
1
1
1
1
1
1
1
1
1
1
1
1
1
1
1
1
1
1
1
1
1
1
1
1
1
1
1
1
1
1
1
1
1
1
1
1
1
1
1
1
1
1
1
1
1
1
1
1
1
1
1
1
1
1
1
1
1
1
1
1
1
1
1
1
1
1
1
1
1
1
1
1
1
1
1
1
1
1
1
1
1
1
1
1
1
1
1
1
1
1
1
1
1
1
1
1
1
1
1
1
1
1
1
1
1
1
1
1
1
1
1
1
1
1
1
1
1
1
1
1
1
1
1
1
1
1
1
1
1
1
1
1
1
1
1
1
1
1
1
1
1
1
1
1
1
1
1
1
1
1
1
1
1
1
1
1
1
1
1
1
1
1
1
1
1
1
1
1
1
1
1
1
1
1
1
1
1
1
1
1
1
1
1
1
1
1
1
1
1
1
1
1
1
1
1
1
1
1
1
1
1
1
1
1
1
1
1
1
1
1
1
1
1
1
1
1
1
1
1
1
1
1
1
1
1
1
1
1
1
1
1
1
1
1
1
1
1
1
1
1
1
1
1
1
1
1
1
1
1
1
1
1
1
1
1
1
1
1
1
1
1
1
1
1
1
1
1
1
1
1
1
1
1
1
1
1
1
1
1
1
1
1
1
1
1
1
1
1
1
1
1
1
1
1
1
1
1
1
1
1
1
1
1
1
1
1
1
1
1
1
1
1
1
1
1
1
1
1
1
1
1
1
1
1
1
1
1
1
1
1
1
1
1
1
1
1
1
1
1
1
1
1
1
1
1
1
1
1
1
1
1
1
1
1
1
1
1
1
1
1
1
1
1
1
1
1
1
1
1
1
1
1
1
1
1
1
1
1
1
1
1
1
1
1
1
1
1
1
1.07103
1.16312
1.26481
1.36124
1.43774
1.52015
1.62155
1.69649
1.74134
1.78446
1.84332
1.87132
1.86603
1.85251
1.84279
1.82687
1.79464
1.74949
1.69616
1.65897
1.65688
1.65751
1.65198
1.6511
1.65362
1.66089
1.6699
1.67801
1.67904
1.67982
1.68239
1.68564
1.68969
1.69287
1.69363
1.69427
1.6953
1.69628
1.69611
1.69585
1.69535
1.69485
1.69424
1.69362
1.69392
1.69505
1.69697
1.69933
1.7019
1.70353
1.70377
1.70333
1.70137
1.69788
1.69489
1.6941
1.69431
1.69544
1.69748
1.69935
1.70115
1.70282
1.70429
1.7054
1.70596
1.70601
1.70568
1.70488
1.70345
1.70112
1.69901
1.69822
1.69831
1.6992
1.70074
1.70207
1.70296
1.70381
1.70454
1.70523
1
0.999935
0.999501
1.01134
1.05263
1.08454
1.13577
1.22982
1.31751
1.37176
1.43021
1.5096
1.55641
1.58821
1.62865
1.65077
1.67683
1.70401
1.71885
1.7192
1.72148
1.72439
1.72091
1.70938
1.69862
1.69547
1.69129
1.6864
1.68339
1.68343
1.68484
1.68761
1.69041
1.69217
1.69325
1.69554
1.69925
1.70068
1.70067
1.70064
1.70065
1.70082
1.70099
1.70063
1.69972
1.69877
1.6982
1.69847
1.7006
1.70354
1.70496
1.70493
1.70407
1.70301
1.70284
1.70277
1.70281
1.70324
1.70325
1.70284
1.70192
1.70158
1.70167
1.70219
1.70311
1.70467
1.70598
1.70614
1.70595
1.70573
1.70513
1.70471
1.70481
1.70549
1.7057
1.70561
1.70529
1.70467
1.70425
1.70422
1
1
1
1
0.999999
1
1
0.999668
1.00115
1.01119
1.03316
1.09564
1.21401
1.31217
1.44431
1.57587
1.69839
1.75747
1.78143
1.79427
1.79294
1.78811
1.78092
1.76567
1.74739
1.71929
1.70887
1.70487
1.70311
1.70136
1.7
1.70081
1.70346
1.70574
1.70573
1.70639
1.70831
1.70881
1.70968
1.71245
1.71436
1.71489
1.71498
1.71469
1.71367
1.71124
1.70785
1.70651
1.70666
1.70741
1.70837
1.70935
1.71066
1.71236
1.71356
1.71421
1.71432
1.7143
1.71371
1.71225
1.71022
1.7081
1.70653
1.70563
1.70533
1.70557
1.70727
1.70986
1.71166
1.71248
1.71257
1.71256
1.71276
1.71287
1.71267
1.71209
1.71093
1.70966
1.70821
1.70727
1
1
1
1
1
1
1
1
1
1
1
1
0.999694
1.00121
1.02255
1.11873
1.26707
1.45365
1.57602
1.68312
1.74818
1.7578
1.76344
1.75276
1.74145
1.74901
1.7578
1.7582
1.75552
1.74641
1.73779
1.73246
1.72768
1.7237
1.71901
1.71611
1.71611
1.71711
1.71981
1.72463
1.72955
1.73139
1.73231
1.73251
1.73189
1.7289
1.7246
1.72155
1.72055
1.72046
1.72018
1.71947
1.7193
1.72024
1.72269
1.72563
1.72767
1.72803
1.72707
1.72499
1.72194
1.71819
1.71555
1.71433
1.71374
1.71371
1.71424
1.71518
1.71654
1.7178
1.71886
1.71971
1.72059
1.72107
1.72092
1.72014
1.7186
1.71631
1.71434
1.71282
1
1
1
1
1
1
1
1
1
1
1
1
1
1
1
0.999996
0.99956
1.01333
1.08488
1.20105
1.38782
1.55123
1.66659
1.73689
1.76004
1.78686
1.79457
1.7919
1.789
1.78098
1.76885
1.75002
1.74547
1.74371
1.73929
1.73281
1.72951
1.7296
1.73094
1.73455
1.73831
1.74035
1.74054
1.741
1.74121
1.74118
1.74039
1.73859
1.73701
1.73596
1.73461
1.73254
1.73093
1.73053
1.73077
1.73168
1.7337
1.73583
1.73644
1.73599
1.73432
1.73189
1.73028
1.72905
1.72774
1.72657
1.72622
1.72617
1.72602
1.72571
1.72541
1.7254
1.72563
1.72597
1.72611
1.72592
1.72501
1.72345
1.72232
1.72134
1
1
1
1
1
1
1
1
1
1
1
1
1
1
1
1
1
1
1
0.999653
1.00753
1.06636
1.15734
1.33264
1.49113
1.62508
1.7003
1.71906
1.74576
1.74761
1.74626
1.75128
1.762
1.76566
1.76213
1.75549
1.74959
1.7453
1.74284
1.74093
1.73794
1.7363
1.73671
1.73829
1.74098
1.74415
1.7472
1.74955
1.75059
1.75036
1.74909
1.74641
1.74206
1.73941
1.73848
1.73803
1.73798
1.73836
1.73936
1.74065
1.74192
1.74284
1.74297
1.74237
1.74121
1.74016
1.73929
1.73841
1.73714
1.73554
1.7339
1.73305
1.73239
1.73169
1.73109
1.7306
1.73031
1.73028
1.73065
1.7307
1
1
1
1
1
1
1
1
1
1
1
1
1
1
1
1
1
1
1
1
1
1
0.999734
1.00334
1.03799
1.11815
1.29063
1.45404
1.57803
1.66375
1.70299
1.74819
1.76445
1.76309
1.76225
1.76058
1.75787
1.75249
1.74808
1.74346
1.73841
1.73501
1.73431
1.73494
1.73696
1.73982
1.74364
1.74904
1.75326
1.75418
1.75407
1.75357
1.75174
1.7465
1.74234
1.74079
1.74027
1.74034
1.7407
1.7413
1.74313
1.74566
1.74781
1.74861
1.74854
1.74806
1.74751
1.74641
1.74437
1.74155
1.73929
1.73826
1.73768
1.73708
1.73671
1.73633
1.73605
1.73596
1.73627
1.73698
1
1
1
1
1
1
1
1
1
1
1
1
1
1
1
1
1
1
1
1
1
1
1
1
1
0.999786
1.00281
1.03106
1.09512
1.2658
1.42783
1.55845
1.63131
1.66934
1.70947
1.72621
1.73372
1.74206
1.75215
1.75234
1.74811
1.74195
1.73734
1.73457
1.73355
1.73405
1.73545
1.73789
1.74277
1.74869
1.7518
1.75238
1.75209
1.75135
1.74937
1.74709
1.74519
1.74374
1.74307
1.74305
1.74363
1.7442
1.74485
1.74591
1.7469
1.74762
1.74803
1.74802
1.74724
1.74616
1.74504
1.74441
1.74411
1.74353
1.7429
1.74232
1.74208
1.74217
1.7421
1.74179
1
1
1
1
1
1
1
1
1
1
1
1
1
1
1
1
1
1
1
1
1
1
1
1
1
1
1
1
0.999821
1.0025
1.02546
1.08738
1.244
1.39326
1.52533
1.60988
1.66444
1.71591
1.73846
1.74181
1.74119
1.73975
1.73713
1.73525
1.73329
1.7299
1.72698
1.72683
1.72796
1.73111
1.7359
1.74121
1.74491
1.74668
1.74733
1.74778
1.74845
1.74862
1.74818
1.74613
1.74312
1.74149
1.74104
1.74105
1.74158
1.74232
1.74342
1.74458
1.74538
1.74615
1.74699
1.74777
1.74875
1.74932
1.74916
1.74836
1.74725
1.74597
1.74526
1.74453
1
1
1
1
1
1
1
1
1
1
1
1
1
1
1
1
1
1
1
1
1
1
1
1
1
1
1
1
1
0.999998
1
0.999874
1.0024
1.01907
1.08284
1.25766
1.40603
1.52631
1.59451
1.65268
1.69941
1.72066
1.72814
1.73157
1.73815
1.73708
1.73187
1.72533
1.72165
1.7208
1.72227
1.72514
1.72781
1.73105
1.73599
1.74145
1.74522
1.74692
1.74733
1.74724
1.74601
1.74339
1.74017
1.73769
1.73712
1.73791
1.7397
1.74099
1.74166
1.74208
1.74312
1.74541
1.74803
1.74901
1.74888
1.74834
1.7476
1.74645
1.74495
1.74403
1
1
1
1
1
1
1
1
1
1
1
1
1
1
1
1
1
1
1
1
1
1
1
1
1
1
1
1
1
1
1
0.999999
0.999999
1
0.999926
1.00415
1.02461
1.09938
1.26107
1.40095
1.52961
1.60406
1.66315
1.70137
1.72198
1.72782
1.72739
1.72691
1.72705
1.72532
1.72148
1.71775
1.71593
1.71643
1.71889
1.72382
1.73139
1.73712
1.73954
1.74065
1.74085
1.74073
1.74006
1.73924
1.73802
1.73712
1.7369
1.7367
1.73665
1.73718
1.73838
1.74033
1.74286
1.74528
1.74588
1.74578
1.74553
1.74537
1.74521
1.74484
1
1
1
1
1
1
1
1
1
1
1
1
1
1
1
1
1
1
1
1
1
1
1
1
1
1
1
1
1
1
1
1
1
1
0.999999
1
0.999978
1.00005
1.00509
1.02651
1.12935
1.30852
1.4461
1.53911
1.60511
1.67085
1.70876
1.71976
1.72067
1.72422
1.7279
1.72544
1.7187
1.71305
1.71222
1.71362
1.71729
1.72056
1.7221
1.72422
1.72758
1.73128
1.73367
1.73417
1.73518
1.73759
1.73851
1.7382
1.73617
1.73356
1.73306
1.73429
1.73707
1.73898
1.73939
1.73936
1.73982
1.7411
1.74192
1.7427
1
1
1
1
1
1
1
1
1
1
1
1
1
1
1
1
1
1
1
1
1
1
1
1
1
1
1
1
1
1
1
1
1
1
1
1
1
0.999999
1
0.999968
1.00053
1.01056
1.04728
1.17829
1.33512
1.48327
1.58049
1.63883
1.67808
1.70611
1.71677
1.71905
1.71836
1.71893
1.72018
1.71975
1.71694
1.71334
1.71124
1.71123
1.71288
1.71506
1.71898
1.72454
1.72934
1.73252
1.73401
1.73429
1.73349
1.73217
1.73194
1.73211
1.73281
1.73295
1.73285
1.73303
1.73391
1.73527
1.7365
1.7385
1
1
1
1
1
1
1
1
1
1
1
1
1
1
1
1
1
1
1
1
1
1
1
1
1
1
1
1
1
1
1
1
1
1
1
1
1
1
1
0.999999
0.999999
1
0.999985
1.00214
1.01605
1.08577
1.27125
1.43255
1.53466
1.59579
1.64984
1.69532
1.71172
1.71503
1.71799
1.72287
1.72276
1.72055
1.71533
1.70947
1.70742
1.70795
1.71009
1.71307
1.71632
1.71964
1.72341
1.72611
1.72655
1.72666
1.72795
1.73096
1.73226
1.73208
1.73071
1.72894
1.72855
1.72918
1.73064
1.73342
1
1
1
1
1
1
1
1
1
1
1
1
1
1
1
1
1
1
1
1
1
1
1
1
1
1
1
1
1
1
1
1
1
1
1
1
1
1
1
1
1
1
0.999999
1
0.999984
1.00027
1.00955
1.04588
1.16774
1.33599
1.48388
1.58674
1.64527
1.67529
1.69917
1.71324
1.71674
1.71733
1.71615
1.71585
1.7171
1.71625
1.71267
1.71062
1.7102
1.71094
1.71237
1.71366
1.71435
1.71624
1.72025
1.72506
1.7269
1.72679
1.72655
1.72625
1.72641
1.72676
1.72757
1.72964
1
1
1
1
1
1
1
1
1
1
1
1
1
1
1
1
1
1
1
1
1
1
1
1
1
1
1
1
1
1
1
1
1
1
1
1
1
1
1
1
1
1
1
1
0.999999
0.999999
1
1.00002
1.00242
1.01958
1.09829
1.29516
1.48748
1.58603
1.62688
1.65928
1.68813
1.69995
1.70687
1.71306
1.7185
1.71962
1.71789
1.71642
1.71542
1.7137
1.71133
1.70835
1.70755
1.70795
1.71065
1.71545
1.71909
1.7211
1.72169
1.72164
1.72161
1.72259
1.72426
1.72656
1
1
1
1
1
1
1
1
1
1
1
1
1
1
1
1
1
1
1
1
1
1
1
1
1
1
1
1
1
1
1
1
1
1
1
1
1
1
1
1
1
1
1
1
1
1
1
1
1
0.999991
1.00072
1.01686
1.0847
1.2566
1.43005
1.55686
1.63238
1.65725
1.67204
1.68523
1.70129
1.7119
1.71362
1.71469
1.71667
1.71796
1.71883
1.7165
1.71074
1.70749
1.70751
1.71055
1.71405
1.71451
1.7143
1.71447
1.71554
1.71756
1.71938
1.7215
1
1
1
1
1
1
1
1
1
1
1
1
1
1
1
1
1
1
1
1
1
1
1
1
1
1
1
1
1
1
1
1
1
1
1
1
1
1
1
1
1
1
1
1
1
1
1
1
1
1
1
0.999999
1.0004
1.0109
1.0573
1.19011
1.39612
1.60198
1.65596
1.66181
1.67562
1.68969
1.6931
1.69522
1.70282
1.71232
1.71597
1.71401
1.7091
1.7085
1.71037
1.71394
1.71509
1.71414
1.71105
1.70979
1.71021
1.71142
1.71313
1.71625
1
1
1
1
1
1
1
1
1
1
1
1
1
1
1
1
1
1
1
1
1
1
1
1
1
1
1
1
1
1
1
1
1
1
1
1
1
1
1
1
1
1
1
1
1
1
1
1
1
1
1
1
1
0.999997
1.00016
1.00539
1.04926
1.21903
1.42853
1.5797
1.65913
1.68862
1.692
1.68967
1.68997
1.69526
1.70213
1.7045
1.70471
1.70591
1.71051
1.71577
1.71697
1.71565
1.71307
1.71093
1.70967
1.70952
1.70994
1.71154
1
1
1
1
1
1
1
1
1
1
1
1
1
1
1
1
1
1
1
1
1
1
1
1
1
1
1
1
1
1
1
1
1
1
1
1
1
1
1
1
1
1
1
1
1
1
1
1
1
1
1
1
1
1
1
0.999995
1.00019
1.00696
1.07679
1.21694
1.40652
1.57925
1.69027
1.70421
1.7017
1.70437
1.69889
1.69696
1.69511
1.69476
1.70057
1.70905
1.71356
1.71278
1.70975
1.70845
1.70909
1.71056
1.71193
1.71163
1
1
1
1
1
1
1
1
1
1
1
1
1
1
1
1
1
1
1
1
1
1
1
1
1
1
1
1
1
1
1
1
1
1
1
1
1
1
1
1
1
1
1
1
1
1
1
1
1
1
1
1
1
1
1
1
1
0.999997
1.00051
1.00693
1.06746
1.21737
1.47081
1.61773
1.67969
1.70702
1.7093
1.70977
1.70694
1.70255
1.70424
1.70623
1.70529
1.7044
1.70073
1.70059
1.70452
1.71005
1.71187
1.71233
1
1
1
1
1
1
1
1
1
1
1
1
1
1
1
1
1
1
1
1
1
1
1
1
1
1
1
1
1
1
1
1
1
1
1
1
1
1
1
1
1
1
1
1
1
1
1
1
1
1
1
1
1
1
1
1
1
1
1
0.999997
1.00046
1.00857
1.11598
1.32731
1.48429
1.5975
1.6861
1.71421
1.71437
1.71773
1.72234
1.72123
1.71272
1.70336
1.69842
1.69794
1.70054
1.70426
1.70673
1.70972
1
1
1
1
1
1
1
1
1
1
1
1
1
1
1
1
1
1
1
1
1
1
1
1
1
1
1
1
1
1
1
1
1
1
1
1
1
1
1
1
1
1
1
1
1
1
1
1
1
1
1
1
1
1
1
1
1
1
1
1
0.999999
1.00001
1.00202
1.02423
1.15301
1.33869
1.54228
1.63875
1.67305
1.70428
1.71702
1.71706
1.71383
1.70939
1.7082
1.70768
1.70738
1.70669
1.70529
1.70522
1
1
1
1
1
1
1
1
1
1
1
1
1
1
1
1
1
1
1
1
1
1
1
1
1
1
1
1
1
1
1
1
1
1
1
1
1
1
1
1
1
1
1
1
1
1
1
1
1
1
1
1
1
1
1
1
1
1
1
1
1
1
0.999998
1.00008
1.00421
1.03674
1.19079
1.45763
1.61309
1.65624
1.6813
1.70102
1.70075
1.70395
1.71334
1.71986
1.72143
1.71876
1.71094
1.70674
1
1
1
1
1
1
1
1
1
1
1
1
1
1
1
1
1
1
1
1
1
1
1
1
1
1
1
1
1
1
1
1
1
1
1
1
1
1
1
1
1
1
1
1
1
1
1
1
1
1
1
1
1
1
1
1
1
1
1
1
1
1
1
1
0.999998
1.00024
1.00819
1.09323
1.3518
1.53544
1.65419
1.68317
1.67671
1.67982
1.69665
1.71246
1.71824
1.71576
1.7098
1.70907
1
1
1
1
1
1
1
1
1
1
1
1
1
1
1
1
1
1
1
1
1
1
1
1
1
1
1
1
1
1
1
1
1
1
1
1
1
1
1
1
1
1
1
1
1
1
1
1
1
1
1
1
1
1
1
1
1
1
1
1
1
1
1
1
1
0.999999
1.00002
1.00207
1.04823
1.18767
1.40241
1.60775
1.68325
1.69119
1.70039
1.70396
1.70743
1.70742
1.70248
1.70395
1
1
1
1
1
1
1
1
1
1
1
1
1
1
1
1
1
1
1
1
1
1
1
1
1
1
1
1
1
1
1
1
1
1
1
1
1
1
1
1
1
1
1
1
1
1
1
1
1
1
1
1
1
1
1
1
1
1
1
1
1
1
1
1
1
1
1
1
1.00041
1.00876
1.07202
1.2919
1.55437
1.66211
1.70988
1.71773
1.71817
1.71138
1.70359
1.70389
1
1
1
1
1
1
1
1
1
1
1
1
1
1
1
1
1
1
1
1
1
1
1
1
1
1
1
1
1
1
1
1
1
1
1
1
1
1
1
1
1
1
1
1
1
1
1
1
1
1
1
1
1
1
1
1
1
1
1
1
1
1
1
1
1
1
1
1
0.999999
1.00002
1.00112
1.0307
1.23689
1.48181
1.60913
1.69662
1.71244
1.71224
1.71508
1.71441
1
1
1
1
1
1
1
1
1
1
1
1
1
1
1
1
1
1
1
1
1
1
1
1
1
1
1
1
1
1
1
1
1
1
1
1
1
1
1
1
1
1
1
1
1
1
1
1
1
1
1
1
1
1
1
1
1
1
1
1
1
1
1
1
1
1
1
1
1
1
1
1.00041
1.01625
1.1589
1.37995
1.56977
1.65778
1.68369
1.70252
1.71622
1
1
1
1
1
1
1
1
1
1
1
1
1
1
1
1
1
1
1
1
1
1
1
1
1
1
1
1
1
1
1
1
1
1
1
1
1
1
1
1
1
1
1
1
1
1
1
1
1
1
1
1
1
1
1
1
1
1
1
1
1
1
1
1
1
1
1
1
1
1
1
1
1.00013
1.00736
1.06842
1.25827
1.53888
1.67718
1.68131
1.6932
1
1
1
1
1
1
1
1
1
1
1
1
1
1
1
1
1
1
1
1
1
1
1
1
1
1
1
1
1
1
1
1
1
1
1
1
1
1
1
1
1
1
1
1
1
1
1
1
1
1
1
1
1
1
1
1
1
1
1
1
1
1
1
1
1
1
1
1
1
1
1
1
1
1.00002
1.00127
1.02794
1.19632
1.51238
1.65726
1.70008
1
1
1
1
1
1
1
1
1
1
1
1
1
1
1
1
1
1
1
1
1
1
1
1
1
1
1
1
1
1
1
1
1
1
1
1
1
1
1
1
1
1
1
1
1
1
1
1
1
1
1
1
1
1
1
1
1
1
1
1
1
1
1
1
1
1
1
1
1
1
1
1
1
1
1
1.00045
1.01433
1.18987
1.47697
1.65783
1
1
1
1
1
1
1
1
1
1
1
1
1
1
1
1
1
1
1
1
1
1
1
1
1
1
1
1
1
1
1
1
1
1
1
1
1
1
1
1
1
1
1
1
1
1
1
1
1
1
1
1
1
1
1
1
1
1
1
1
1
1
1
1
1
1
1
1
1
1
1
1
1
1
1
1
1.00018
1.01686
1.13521
1.51757
1
1
1
1
1
1
1
1
1
1
1
1
1
1
1
1
1
1
1
1
1
1
1
1
1
1
1
1
1
1
1
1
1
1
1
1
1
1
1
1
1
1
1
1
1
1
1
1
1
1
1
1
1
1
1
1
1
1
1
1
1
1
1
1
1
1
1
1
1
1
1
1
1
1
1
1
1
1.00026
1.00576
1.25491
1
1
1
1
1
1
1
1
1
1
1
1
1
1
1
1
1
1
1
1
1
1
1
1
1
1
1
1
1
1
1
1
1
1
1
1
1
1
1
1
1
1
1
1
1
1
1
1
1
1
1
1
1
1
1
1
1
1
1
1
1
1
1
1
1
1
1
1
1
1
1
1
1
1
1
1
1
1
1.00007
1.04876
1
1
1
1
1
1
1
1
1
1
1
1
1
1
1
1
1
1
1
1
1
1
1
1
1
1
1
1
1
1
1
1
1
1
1
1
1
1
1
1
1
1
1
1
1
1
1
1
1
1
1
1
1
1
1
1
1
1
1
1
1
1
1
1
1
1
1
1
1
1
1
1
1
1
1
1
1
1
1
1.00464
1
1
1
1
1
1
1
1
1
1
1
1
1
1
1
1
1
1
1
1
1
1
1
1
1
1
1
1
1
1
1
1
1
1
1
1
1
1
1
1
1
1
1
1
1
1
1
1
1
1
1
1
1
1
1
1
1
1
1
1
1
1
1
1
1
1
1
1
1
1
1
1
1
1
1
1
1
1
1
1.00032
1
1
1
1
1
1
1
1
1
1
1
1
1
1
1
1
1
1
1
1
1
1
1
1
1
1
1
1
1
1
1
1
1
1
1
1
1
1
1
1
1
1
1
1
1
1
1
1
1
1
1
1
1
1
1
1
1
1
1
1
1
1
1
1
1
1
1
1
1
1
1
1
1
1
1
1
1
1
1
1.00001
1
1
1
1
1
1
1
1
1
1
1
1
1
1
1
1
1
1
1
1
1
1
1
1
1
1
1
1
1
1
1
1
1
1
1
1
1
1
1
1
1
1
1
1
1
1
1
1
1
1
1
1
1
1
1
1
1
1
1
1
1
1
1
1
1
1
1
1
1
1
1
1
1
1
1
1
1
1
1
1
1
1
1
1
1
1
1
1
1
1
1
1
1
1
1
1
1
1
1
1
1
1
1
1
1
1
1
1
1
1
1
1
1
1
1
1
1
1
1
1
1
1
1
1
1
1
1
1
1
1
1
1
1
1
1
1
1
1
1
1
1
1
1
1
1
1
1
1
1
1
1
1
1
1
1
1
1
1
1
1
)
;

boundaryField
{
    inlet
    {
        type            fixedValue;
        value           uniform 1;
    }
    outlet
    {
        type            zeroGradient;
    }
    bottom
    {
        type            symmetryPlane;
    }
    top
    {
        type            symmetryPlane;
    }
    obstacle
    {
        type            zeroGradient;
    }
    defaultFaces
    {
        type            empty;
    }
}


// ************************************************************************* //
