/*--------------------------------*- C++ -*----------------------------------*\
| =========                 |                                                 |
| \\      /  F ield         | OpenFOAM: The Open Source CFD Toolbox           |
|  \\    /   O peration     | Version:  2206                                  |
|   \\  /    A nd           | Website:  www.openfoam.com                      |
|    \\/     M anipulation  |                                                 |
\*---------------------------------------------------------------------------*/
FoamFile
{
    version     2.0;
    format      ascii;
    arch        "LSB;label=32;scalar=64";
    class       volScalarField;
    location    "0.08";
    object      p;
}
// * * * * * * * * * * * * * * * * * * * * * * * * * * * * * * * * * * * * * //

dimensions      [1 -1 -2 0 0 0 0];

internalField   nonuniform List<scalar> 
4800
(
1
1
1
1
1
1
1
1
1
1
1
1
1
1
1
1
1
1
1
1
1
1
1
1
1
1
1
1
1
1
1
1
1
1
1
1
1
1
1
1
1
1
1
1
1
1
1
1
1
1
1
1
1
1
1
1
1
1
1
1
1
1
1
1
1
1
1
1
1
1
1
1
1
1
1
1
1
1
1
1
1
1
1
1
1
1
1
1
1
1
1
1
1
1
1
1
1
1
1
1
1
1
1
1
1
1
1
1
1
1
1
1
1
1
1
1
1
1
1
1
1
1
1
1
1
1
1
1
1
1
1
1
1
1
1
1
1
1
1
1
1
1
1
1
1
1
1
1
1
1
1
1
1
1
1
1
1
1
1
1
1
1
1
1
1
1
1
1
1
1
1
1
1
1
1
1
1
1
1
1
1
1
1
1
1
1
1
1
1
1
1
1
1
1
1
1
1
1
1
1
1
1
1
1
1
1
1
1
1
1
1
1
1
1
1
1
1
1
1
1
1
1
1
1
1
1
1
1
1
1
1
1
1
1
1
1
1
1
1
1
1
1
1
1
1
1
1
1
1
1
1
1
1
1
1
1
1
1
1
1
1
1
1
1
1
1
1
1
1
1
1
1
1
1
1
1
1
1
1
1
1
1
1
1
1
1
1
1
1
1
1
1
1
1
1
1
1
1
1
1
1
1
1
1
1
1
1
1
1
1
1
1
1
1
1
1
1
1
1
1
1
1
1
1
1
1
1
1
1
1
1
1
1
1
1
1
1
1
1
1
1
1
1
1
1
1
1
1
1
1
1
1
1
1
1
1
1
1
1
1
1
1
1
1
1
1
1
1
1
1
1
1
1
1
1
1
1
1
1
1
1
1
1
1
1
1
1
1
1
1
1
1
1
1
1
1
1
1
1
1
1
1
1
1
1
1
1
1
1
1
1
1
1
1
1
1
1
1
1
1
1
1
1
1
1
1
1
1
1
1
1
1
1
1
1
1
1
1
1
1
1
1
1
1
1
1
1
1
1
1
1
1
1
1
1
1
1
1
1
1
1
1
1
1
1
1
1
1
1
1
1
1
1
1
1
1
1
1
1
1
1
1
1
1
1
1
1
1
1
1
1
1
1
1
1
1
1
1
1
1
1
1
1
1
1
1
1
1
1
1
1
1
1
1
1
1
1
1
1
1
1
1
1
1
1
1
1
1
1
1
1
1
1
1
1
1
1
1
1
1
1
1
1
1
1
1
1
1
1
1
1
1
1
1
1
1
1
1
1
1
1
1
1
1
1
1
1
1
1
1
1
1
1
1
1
1
1
1
1
1
1
1
1
1
1
1
1
1
1
1
1
1
1
1
1
1
1
1
1
1
1
1
1
1
1
1
1
1
1
1
1
1
1
1
1
1
1
1
1
1
1
1
1
1
1
1
1
1
1
1
1
1
1
1
1
1
1
1
1
1
1
1
1
1
1
1
1
1
1
1
1
1
1
1
1
1
1
1
1
1
1
1
1
1
1
1
1
1
1
1
1
1
1
1
1
1
1
1
1
1
1
1
1
1
1
1
1
1
1
1
1
1
1
1
1
1
1
1
1
1
1
1
1
1
1
1
1
1
1
1
1
1
1
1
1
1
1
1
1
1
1
1
1
1
1
1
1
1
1
1
1
1
1
1
1
1
1
1
1
1
1
1
1
1
1
1
1
1
1
1
1
1
1
1
1
1
1
1
1
1
1
1
1
1
1
1
1
1
1
1
1
1
1
1
1
1
1
1
1
1
1
1
1
1
1
1
1
1
1
1
1
1
1
1
1
1
1
1
1
1
1
1
1
1
1
1
1
1
1
1
1
1
1
1
1
1
1
1
1
1
1
1
1
1
1
1
1
1
1
1
1
1
1
1
1
1
1
1
1
1
1
1
1
1
1
1
1
1
1
1
1
1
1
1
1
1
1
1
1
1
1
1
1
1
1
1
1
1
1
1
1
1
1
1
1
1
1
1
1
1
1
1
1
1
1
1
1
1
1
1
1
1
1
1
1
1
1
1
1
1
1
1
1
1
1
1
1
1
1
1
1
1
1
1
1
1
1
1
1
1
1
1
1
1
1
1
1
1
1
1
1
1
1
1
1
1
1
1
1
1
1
1
1
1
1
1
1
1
1
1
1
1
1
1
1
1
1
1
1
1
1
1
1
1
1
1
1
1
1
1
1
1
1
1
1
1
1
1
1
1
1
1
1
1
1
1
1
1
1
1
1
1
1
1
1
1
1
1
1
1
1
1
1
1
1
1
1
1
1
1
1
1
1
1
1
1
1
1
1
1
1
1
1
1
1
1
1
1
1
1
1
1
1
1
1
1
1
1
1
1
1
1
1
1
1
1
1
1
1
1
1
1
1
1
1
1
1
1
1
1
1
1
1
1
1
1
1
1
1
1
1
1
1
1
1
1
1
1
1
1
1
1
1
1
1
1
1
1
1
1
1
1
1
1
1
1
1
1
1
1
1
1
1
1
1
1
1
1
1
1
1
1
1
1
1
1
1
1
1
1
1
1
1
1
1
1
1
1
1
1
1
1
1
1
1
1
1
1
1
1
1
1
1
1
1
1
1
1
1
1
1
1
1
1
1
1
1
1
1
1
1
1
1
1
1
1
1
1
1
1
1
1
1
1
1
1
1
1
1
1
1
1
1
1
1
1
1
1
1
1
1
1
1
1
1
1
1
1
1
1
1
1
1
1
1
1
1
1
1
1
1
1
1
1
1
1
1
1
1
1
1
1
1
1
1
1
1
1
1
1
1
1
1
1
1
1
1
1
1
1
1
1
1
1
1
1
1
1
1
1
1
1
1
1
1
1
1
1
1
1
1
1
1
1
1
1
1
1
1
1
1
1
1
1
1
1
1
1
1
1
1
1
1
1
1
1
1
1
1
1
1
1
1
1
1
1
1
1
1
1
1
1
1
1
1
1
1
1
1
1
1
1
1
1
1
1
1
1
1
1
1
1
1
1
1
1
1
1
1
1
1
1
1
1
1
1
1
1
1
1
1
1
1
1
1
1
1
1
1
1
1
1
1
1
1
1
1
1
1
1
1
1
1
1
1
1
1
1
1
1
1
1
1
1
1
1
1
1
1
1
1
1
1
1
1
1
1
1
1
1
1
1
1
1
1
1
1
1
1
1
1
1
1
1
1
1
1
1
1
1
1
1
1
1
1
1
1
1
1
1
1
1
1
1
1
1
1
1
1
1
1
1
1
1
1
1
1
1
1
1
1
1
1
1
1
1
1
1
1
1
1
1
1
1
1
1
1
1
1
1
1
1
1
1
1
1
1
1
1
1
1
1
1
1
1
1
1
1
1
1
1
1
1
1
1
1
1
1
1
1
1
1
1
1
1
1
1
1
1
1
1
1
1
1
1
1
1
1
1
1
1
1
1
1
1
1
1
1
1
1
1
1
1
1
1
1
1
1
1
1
1
1
1
1
1
1
1
1
1
1
1
1
1
1
1
1
1
1
1
1
1
1
1
1
1
1
1
1
1
1
1
1
1
1
1
1
1
1
1
1
1
1
1
1
1
1
1
1
1
1
1
1
1
1
1
1
1
1
1
1
1
1
1
1
1
1
1
1
1
1
1.2617
1.67446
2.17038
2.78189
3.39342
3.8964
4.46895
5.36329
5.91707
6.10913
6.45884
7.00495
7.1716
7.08428
6.83588
6.65588
6.37632
5.91005
5.24398
4.92402
4.81063
4.63086
4.45641
4.45359
4.49436
4.5555
4.61196
4.64843
4.70898
4.79143
4.84382
4.8411
4.81834
4.81336
4.83123
4.84397
4.84459
4.83618
4.83251
4.85013
4.88732
4.91401
4.92908
4.92889
4.91729
4.89405
4.85941
4.82738
4.81779
4.81645
4.82199
4.85044
4.89581
4.92201
4.93329
4.93634
4.93227
4.92152
4.90892
4.88996
4.86984
4.85018
4.83797
4.83787
4.84839
4.87003
4.90075
4.92553
4.93712
4.9384
4.93012
4.90334
4.86484
4.8155
4.72638
4.66875
4.66099
4.65913
4.66527
4.68342
1
0.999974
0.998535
1.00143
1.06731
1.22712
1.3519
1.53465
1.93103
2.39484
2.74953
3.25918
3.81503
4.2027
4.46766
4.86807
4.98518
5.02854
5.13771
5.22176
5.29804
5.27583
5.13093
4.98307
4.91726
4.85891
4.81133
4.72148
4.70239
4.72531
4.75618
4.76472
4.76711
4.78275
4.82012
4.84719
4.85261
4.84949
4.83777
4.83093
4.83357
4.84368
4.86388
4.88852
4.89793
4.89397
4.88397
4.88224
4.88319
4.87745
4.8689
4.86429
4.86138
4.86214
4.86674
4.8742
4.88715
4.90416
4.91122
4.91335
4.91357
4.90934
4.901
4.8947
4.89162
4.89055
4.88518
4.87963
4.87475
4.8742
4.87554
4.86913
4.8472
4.80367
4.75
4.70774
4.69124
4.68852
4.69011
4.69065
1
1
1
1
1
1
1
1
0.998709
1.01149
1.04725
1.1569
1.39435
1.80331
2.36561
3.1315
4.25247
4.89995
5.32384
5.71287
5.70697
5.67953
5.58809
5.44859
5.30737
5.13039
4.91878
4.72728
4.68389
4.71723
4.74564
4.74549
4.75176
4.77347
4.82081
4.86272
4.87068
4.86766
4.86
4.839
4.822
4.8229
4.82495
4.83476
4.86415
4.89378
4.90879
4.9144
4.91445
4.91079
4.9041
4.89333
4.87499
4.85369
4.83652
4.82787
4.82922
4.85329
4.89955
4.92977
4.93756
4.93908
4.93935
4.93916
4.93382
4.92017
4.90241
4.87731
4.85089
4.832
4.82356
4.82439
4.82103
4.79542
4.76051
4.72587
4.70706
4.7021
4.70176
4.70039
1
1
1
1
1
1
1
1
1
1
1
1
1
0.998836
1.01243
1.08957
1.3741
2.05083
2.78938
3.74208
4.35027
4.77824
5.12085
5.11803
5.13104
5.18376
5.1623
5.08012
4.9912
4.96602
4.93305
4.86438
4.79062
4.76479
4.75949
4.78332
4.81148
4.82233
4.83102
4.8295
4.83137
4.83411
4.82965
4.82369
4.82866
4.84895
4.87529
4.90516
4.93272
4.94171
4.93716
4.92222
4.89029
4.8546
4.83513
4.8216
4.81635
4.82428
4.85081
4.88682
4.91857
4.94349
4.96109
4.96521
4.95949
4.94168
4.90898
4.87258
4.84864
4.83126
4.81903
4.81132
4.80063
4.77201
4.74123
4.72554
4.7154
4.70927
4.70695
4.70493
1
1
1
1
1
1
1
1
1
1
1
1
1
1
1
1
0.999408
1.00388
1.04587
1.21557
1.76171
2.41351
3.26193
3.94626
4.56264
5.19429
5.2871
5.32549
5.30958
5.25309
5.17357
5.0302
4.81545
4.71306
4.7162
4.75928
4.80639
4.81299
4.81789
4.8199
4.8188
4.82587
4.84011
4.83475
4.82887
4.83563
4.84636
4.86073
4.88425
4.90924
4.91524
4.91213
4.90017
4.89022
4.88111
4.86441
4.8473
4.84664
4.85594
4.86375
4.87082
4.88291
4.90263
4.92393
4.93437
4.93164
4.91488
4.90195
4.89181
4.87306
4.84781
4.82911
4.81042
4.77827
4.73936
4.71172
4.69258
4.67946
4.67339
4.67334
1
1
1
1
1
1
1
1
1
1
1
1
1
1
1
1
1
1
1
1
0.999782
1.01686
1.12721
1.53803
2.08215
2.88829
3.62229
4.28039
4.88508
4.93031
4.94289
4.9377
4.87787
4.83962
4.83955
4.87226
4.89561
4.88171
4.87224
4.85318
4.83631
4.83206
4.83374
4.82485
4.81894
4.83324
4.83846
4.84034
4.84338
4.85131
4.86653
4.88817
4.91209
4.92433
4.92629
4.92439
4.91589
4.8941
4.87831
4.87437
4.86054
4.85005
4.84903
4.85423
4.86945
4.8945
4.91637
4.92636
4.92433
4.91135
4.88746
4.85902
4.83252
4.79852
4.75409
4.71338
4.68279
4.66126
4.6475
4.64485
1
1
1
1
1
1
1
1
1
1
1
1
1
1
1
1
1
1
1
1
1
1
1
0.999171
1.00535
1.07933
1.38631
1.8372
2.60672
3.3592
4.09208
4.75779
4.89575
5.03667
5.05065
5.0144
4.96585
4.91012
4.81941
4.76423
4.78686
4.81923
4.84528
4.86473
4.86496
4.8387
4.81495
4.80091
4.79753
4.79982
4.80795
4.83251
4.87587
4.91707
4.93904
4.94528
4.94825
4.95025
4.93243
4.88995
4.85891
4.83768
4.83048
4.83191
4.83677
4.85383
4.88606
4.91988
4.92882
4.92383
4.90653
4.87906
4.8454
4.80188
4.74693
4.70137
4.67407
4.65525
4.64292
4.63731
1
1
1
1
1
1
1
1
1
1
1
1
1
1
1
1
1
1
1
1
1
1
1
1
0.999999
1
0.999465
1.00136
1.05077
1.29603
1.65614
2.38211
3.1897
4.03659
4.60373
4.63906
4.73526
4.69274
4.69237
4.73872
4.8125
4.87237
4.90858
4.92991
4.92292
4.90048
4.88059
4.85382
4.80933
4.78902
4.78688
4.79794
4.82081
4.84436
4.88121
4.92034
4.94321
4.95224
4.95354
4.94924
4.93282
4.90267
4.86536
4.84712
4.84801
4.85478
4.87126
4.88952
4.89674
4.89223
4.8798
4.85585
4.81758
4.76631
4.72484
4.71183
4.70379
4.69367
4.6786
4.65435
1
1
1
1
1
1
1
1
1
1
1
1
1
1
1
1
1
1
1
1
1
1
1
1
1
1
1
1
1
0.999761
1.00017
1.03946
1.24424
1.60763
2.30304
3.05746
3.9492
4.44986
4.62963
4.82314
4.85843
4.86926
4.89047
4.92186
4.92385
4.91042
4.88685
4.87709
4.87201
4.86163
4.84743
4.82374
4.80251
4.80663
4.81513
4.8228
4.84565
4.89262
4.93894
4.95307
4.95257
4.95009
4.94217
4.92044
4.89749
4.88355
4.87543
4.87135
4.86768
4.85933
4.83949
4.80503
4.7589
4.72226
4.71007
4.70997
4.7171
4.72284
4.72164
4.70022
1
1
1
1
1
1
1
1
1
1
1
1
1
1
1
1
1
1
1
1
1
1
1
1
1
1
1
1
1
1
1
1
0.999729
1.00026
1.03963
1.20535
1.51295
2.23029
3.05175
4.01079
4.34534
4.477
4.61866
4.69229
4.72753
4.77068
4.82486
4.89224
4.93562
4.94806
4.94345
4.93171
4.89818
4.827
4.78079
4.77797
4.79208
4.82455
4.85522
4.89388
4.92892
4.94625
4.94976
4.9509
4.95307
4.94992
4.93452
4.90609
4.87492
4.84909
4.82351
4.78598
4.72688
4.68466
4.67483
4.67648
4.70004
4.72758
4.73489
4.72347
1
1
1
1
1
1
1
1
1
1
1
1
1
1
1
1
1
1
1
1
1
1
1
1
1
1
1
1
1
1
1
1
1
1
1
0.999806
1.00024
1.04169
1.20414
1.58812
2.3292
3.12496
4.01795
4.33458
4.53455
4.62517
4.69267
4.80275
4.93178
4.97481
4.97917
4.97556
4.95534
4.92512
4.8803
4.83815
4.81506
4.81665
4.83385
4.8397
4.84452
4.85669
4.88108
4.91263
4.93949
4.95057
4.94789
4.9381
4.92101
4.89344
4.85677
4.80502
4.72872
4.6715
4.65584
4.6509
4.65786
4.69649
4.73045
4.72287
1
1
1
1
1
1
1
1
1
1
1
1
1
1
1
1
1
1
1
1
1
1
1
1
1
1
1
1
1
1
1
1
1
1
1
0.999999
0.999998
1.00001
0.999817
1.00204
1.06287
1.21579
1.62527
2.40256
3.43988
4.11405
4.2525
4.45903
4.65793
4.76808
4.81698
4.87708
4.92504
4.94624
4.9372
4.92406
4.92614
4.92627
4.90126
4.85447
4.8236
4.81609
4.8229
4.84062
4.86533
4.90252
4.92489
4.92695
4.92082
4.90785
4.89388
4.86564
4.8034
4.7041
4.64732
4.64023
4.64189
4.64841
4.67341
4.70176
1
1
1
1
1
1
1
1
1
1
1
1
1
1
1
1
1
1
1
1
1
1
1
1
1
1
1
1
1
1
1
1
1
1
1
1
1
1
0.999999
0.999992
1.00004
0.999907
1.00484
1.07823
1.3007
1.90908
2.70322
3.67142
4.25617
4.45016
4.53407
4.57372
4.66767
4.83832
4.94334
4.96226
4.97479
4.98876
4.99727
4.97473
4.92585
4.85674
4.81925
4.82383
4.84318
4.8537
4.86025
4.8609
4.87003
4.88968
4.89239
4.88309
4.86061
4.80753
4.71327
4.64019
4.62247
4.62136
4.62734
4.6597
1
1
1
1
1
1
1
1
1
1
1
1
1
1
1
1
1
1
1
1
1
1
1
1
1
1
1
1
1
1
1
1
1
1
1
1
1
1
1
1
1
0.999997
0.999999
0.999965
1.00031
1.02348
1.13986
1.43805
2.16454
3.21382
4.17951
4.30763
4.41801
4.5708
4.69961
4.7577
4.83847
4.93417
4.98604
4.98421
4.95784
4.93222
4.91141
4.90376
4.8961
4.87209
4.84969
4.83867
4.8243
4.80712
4.80975
4.83287
4.84431
4.8156
4.76585
4.69969
4.63168
4.60922
4.61057
4.631
1
1
1
1
1
1
1
1
1
1
1
1
1
1
1
1
1
1
1
1
1
1
1
1
1
1
1
1
1
1
1
1
1
1
1
1
1
1
1
1
1
1
1
0.999999
0.999997
1.00002
1.00001
1.00223
1.05831
1.26612
1.86376
2.66894
3.63507
4.32354
4.4974
4.58645
4.58031
4.66083
4.81556
4.91718
4.93391
4.94162
4.93829
4.95612
4.98501
4.98285
4.95153
4.8997
4.83568
4.78158
4.74854
4.7415
4.75485
4.78951
4.78085
4.75092
4.69535
4.62503
4.60353
4.61666
1
1
1
1
1
1
1
1
1
1
1
1
1
1
1
1
1
1
1
1
1
1
1
1
1
1
1
1
1
1
1
1
1
1
1
1
1
1
1
1
1
1
1
1
1
1
0.999999
0.999999
0.999986
1.00062
1.02248
1.15173
1.4762
2.25246
3.40498
4.41735
4.51838
4.54905
4.68263
4.73956
4.73271
4.74485
4.78615
4.86141
4.95004
4.98543
4.98865
4.98917
4.96186
4.85318
4.73969
4.71851
4.70999
4.72139
4.75784
4.75142
4.72852
4.67752
4.61929
4.61531
1
1
1
1
1
1
1
1
1
1
1
1
1
1
1
1
1
1
1
1
1
1
1
1
1
1
1
1
1
1
1
1
1
1
1
1
1
1
1
1
1
1
1
1
1
1
1
1
0.999999
0.999998
0.999988
1.0002
1.00456
1.08443
1.39675
2.23041
3.1469
4.0256
4.65615
4.75251
4.72062
4.68098
4.66815
4.68279
4.74643
4.86152
4.98106
5.0231
5.01952
4.97709
4.85428
4.72052
4.68808
4.67885
4.68705
4.72722
4.72649
4.70796
4.66271
4.63547
1
1
1
1
1
1
1
1
1
1
1
1
1
1
1
1
1
1
1
1
1
1
1
1
1
1
1
1
1
1
1
1
1
1
1
1
1
1
1
1
1
1
1
1
1
1
1
1
1
1
0.999999
1
0.99999
1.00008
1.00333
1.06956
1.34838
1.89795
2.86107
3.92393
4.67625
4.78492
4.80578
4.78732
4.70974
4.67898
4.73173
4.89395
5.00763
5.00684
4.9495
4.79663
4.6811
4.65481
4.65189
4.69147
4.7326
4.72742
4.69705
4.6559
1
1
1
1
1
1
1
1
1
1
1
1
1
1
1
1
1
1
1
1
1
1
1
1
1
1
1
1
1
1
1
1
1
1
1
1
1
1
1
1
1
1
1
1
1
1
1
1
1
1
1
1
0.999999
0.999999
0.999994
1.00007
1.00242
1.03074
1.23366
1.83689
2.98146
3.92027
4.62918
4.87132
4.87246
4.74765
4.65534
4.71076
4.88426
4.97222
4.94412
4.86105
4.71799
4.64858
4.64348
4.66555
4.71304
4.71472
4.69382
4.66004
1
1
1
1
1
1
1
1
1
1
1
1
1
1
1
1
1
1
1
1
1
1
1
1
1
1
1
1
1
1
1
1
1
1
1
1
1
1
1
1
1
1
1
1
1
1
1
1
1
1
1
1
1
1
1
1
1
0.999985
1.00134
1.03333
1.33845
2.01549
2.94018
4.07787
4.82342
4.83701
4.70509
4.71192
4.80563
4.91234
4.9259
4.88871
4.79452
4.69443
4.67267
4.67016
4.69128
4.693
4.6727
4.63763
1
1
1
1
1
1
1
1
1
1
1
1
1
1
1
1
1
1
1
1
1
1
1
1
1
1
1
1
1
1
1
1
1
1
1
1
1
1
1
1
1
1
1
1
1
1
1
1
1
1
1
1
1
1
1
1
1
0.999998
0.999995
1.00001
1.00351
1.0512
1.32932
2.00605
3.3347
4.28423
4.59765
4.70876
4.80672
4.87597
4.90075
4.88975
4.82657
4.71403
4.68526
4.68279
4.70631
4.71063
4.68109
4.62064
1
1
1
1
1
1
1
1
1
1
1
1
1
1
1
1
1
1
1
1
1
1
1
1
1
1
1
1
1
1
1
1
1
1
1
1
1
1
1
1
1
1
1
1
1
1
1
1
1
1
1
1
1
1
1
1
1
1
0.999999
0.999999
0.999994
1.00005
1.00378
1.05814
1.39136
2.38996
3.76994
4.29881
4.4792
4.7069
4.8175
4.82786
4.77491
4.66913
4.64667
4.65275
4.70174
4.7554
4.74545
4.66173
1
1
1
1
1
1
1
1
1
1
1
1
1
1
1
1
1
1
1
1
1
1
1
1
1
1
1
1
1
1
1
1
1
1
1
1
1
1
1
1
1
1
1
1
1
1
1
1
1
1
1
1
1
1
1
1
1
1
1
1
0.999999
1
0.999994
1.00011
1.00723
1.13955
1.62528
2.61855
3.68614
4.58695
4.84824
4.83382
4.74437
4.62289
4.54174
4.53085
4.59298
4.73037
4.76712
4.72246
1
1
1
1
1
1
1
1
1
1
1
1
1
1
1
1
1
1
1
1
1
1
1
1
1
1
1
1
1
1
1
1
1
1
1
1
1
1
1
1
1
1
1
1
1
1
1
1
1
1
1
1
1
1
1
1
1
1
1
1
1
1
0.999999
0.999999
0.999991
1.001
1.01695
1.20907
1.84419
2.99164
4.06156
4.71607
4.80281
4.78671
4.64773
4.49064
4.48528
4.56034
4.71231
4.73897
1
1
1
1
1
1
1
1
1
1
1
1
1
1
1
1
1
1
1
1
1
1
1
1
1
1
1
1
1
1
1
1
1
1
1
1
1
1
1
1
1
1
1
1
1
1
1
1
1
1
1
1
1
1
1
1
1
1
1
1
1
1
1
1
0.999999
0.999998
1
1.00247
1.04312
1.40284
2.31534
3.43458
4.43219
4.72783
4.71797
4.67302
4.49353
4.45509
4.51475
4.66976
1
1
1
1
1
1
1
1
1
1
1
1
1
1
1
1
1
1
1
1
1
1
1
1
1
1
1
1
1
1
1
1
1
1
1
1
1
1
1
1
1
1
1
1
1
1
1
1
1
1
1
1
1
1
1
1
1
1
1
1
1
1
1
1
1
1
1
0.999996
1.00019
1.00886
1.14761
1.74724
2.81464
3.82031
4.59195
4.66981
4.66963
4.53831
4.44523
4.49709
1
1
1
1
1
1
1
1
1
1
1
1
1
1
1
1
1
1
1
1
1
1
1
1
1
1
1
1
1
1
1
1
1
1
1
1
1
1
1
1
1
1
1
1
1
1
1
1
1
1
1
1
1
1
1
1
1
1
1
1
1
1
1
1
1
1
1
0.999999
0.999999
0.999999
1.00187
1.03511
1.34272
2.13853
3.21801
4.11356
4.60348
4.62937
4.59323
4.46777
1
1
1
1
1
1
1
1
1
1
1
1
1
1
1
1
1
1
1
1
1
1
1
1
1
1
1
1
1
1
1
1
1
1
1
1
1
1
1
1
1
1
1
1
1
1
1
1
1
1
1
1
1
1
1
1
1
1
1
1
1
1
1
1
1
1
1
1
1
1
0.999997
1.00013
1.00746
1.10328
1.61021
2.53917
3.59211
4.47216
4.58039
4.54324
1
1
1
1
1
1
1
1
1
1
1
1
1
1
1
1
1
1
1
1
1
1
1
1
1
1
1
1
1
1
1
1
1
1
1
1
1
1
1
1
1
1
1
1
1
1
1
1
1
1
1
1
1
1
1
1
1
1
1
1
1
1
1
1
1
1
1
1
1
1
1
1
0.999999
1.00109
1.02282
1.25488
1.94935
3.02408
4.03794
4.48414
1
1
1
1
1
1
1
1
1
1
1
1
1
1
1
1
1
1
1
1
1
1
1
1
1
1
1
1
1
1
1
1
1
1
1
1
1
1
1
1
1
1
1
1
1
1
1
1
1
1
1
1
1
1
1
1
1
1
1
1
1
1
1
1
1
1
1
1
1
1
1
1
1
0.999998
1.00005
1.0056
1.06882
1.49933
2.39063
3.76965
1
1
1
1
1
1
1
1
1
1
1
1
1
1
1
1
1
1
1
1
1
1
1
1
1
1
1
1
1
1
1
1
1
1
1
1
1
1
1
1
1
1
1
1
1
1
1
1
1
1
1
1
1
1
1
1
1
1
1
1
1
1
1
1
1
1
1
1
1
1
1
1
1
1
1
1
1.00049
1.02119
1.16311
2.35287
1
1
1
1
1
1
1
1
1
1
1
1
1
1
1
1
1
1
1
1
1
1
1
1
1
1
1
1
1
1
1
1
1
1
1
1
1
1
1
1
1
1
1
1
1
1
1
1
1
1
1
1
1
1
1
1
1
1
1
1
1
1
1
1
1
1
1
1
1
1
1
1
1
1
1
1
0.999999
1.00006
1.00269
1.27825
1
1
1
1
1
1
1
1
1
1
1
1
1
1
1
1
1
1
1
1
1
1
1
1
1
1
1
1
1
1
1
1
1
1
1
1
1
1
1
1
1
1
1
1
1
1
1
1
1
1
1
1
1
1
1
1
1
1
1
1
1
1
1
1
1
1
1
1
1
1
1
1
1
1
1
1
1
1
1.00001
1.01717
1
1
1
1
1
1
1
1
1
1
1
1
1
1
1
1
1
1
1
1
1
1
1
1
1
1
1
1
1
1
1
1
1
1
1
1
1
1
1
1
1
1
1
1
1
1
1
1
1
1
1
1
1
1
1
1
1
1
1
1
1
1
1
1
1
1
1
1
1
1
1
1
1
1
1
1
1
1
1
1.00028
1
1
1
1
1
1
1
1
1
1
1
1
1
1
1
1
1
1
1
1
1
1
1
1
1
1
1
1
1
1
1
1
1
1
1
1
1
1
1
1
1
1
1
1
1
1
1
1
1
1
1
1
1
1
1
1
1
1
1
1
1
1
1
1
1
1
1
1
1
1
1
1
1
1
1
1
1
1
1
1
1
1
1
1
1
1
1
1
1
1
1
1
1
1
1
1
1
1
1
1
1
1
1
1
1
1
1
1
1
1
1
1
1
1
1
1
1
1
1
1
1
1
1
1
1
1
1
1
1
1
1
1
1
1
1
1
1
1
1
1
1
1
1
1
1
1
1
1
1
1
1
1
1
1
1
1
1
1
1
1
1
1
1
1
1
1
1
1
1
1
1
1
1
1
1
1
1
1
1
1
1
1
1
1
1
1
1
1
1
1
1
1
1
1
1
1
1
1
1
1
1
1
1
1
1
1
1
1
1
1
1
1
1
1
1
1
1
1
1
1
1
1
1
1
1
1
1
1
1
1
1
1
1
1
1
1
1
1
1
1
1
1
1
1
1
1
1
1
1
1
1
1
1
1
1
1
1
1
1
1
1
1
1
1
1
1
1
1
1
1
1
1
1
1
1
1
1
1
1
1
1
1
1
1
1
1
1
1
1
1
1
1
1
1
1
1
1
1
1
1
1
1
1
1
1
1
1
1
1
1
1
1
1
1
1
1
1
1
1
1
1
1
1
1
1
1
1
1
1
1
1
1
1
1
1
1
1
1
1
1
1
1
1
1
1
1
1
1
1
1
1
1
1
1
1
1
1
1
1
1
1
1
1
1
1
1
1
1
1
1
1
1
1
1
1
1
1
1
1
1
1
1
1
1
1
1
1
1
1
1
1
1
1
1
1
1
1
1
1
1
1
1
1
1
1
1
1
1
1
1
1
1
1
1
1
1
1
1
1
1
1
1
1
1
1
1
1
1
1
1
1
1
1
1
1
1
1
1
1
1
1
1
1
1
1
1
1
1
1
1
1
1
1
1
1
1
1
1
1
1
1
1
1
1
1
1
1
1
1
1
1
1
1
1
1
1
1
1
1
1
)
;

boundaryField
{
    inlet
    {
        type            fixedValue;
        value           uniform 1;
    }
    outlet
    {
        type            zeroGradient;
    }
    bottom
    {
        type            symmetryPlane;
    }
    top
    {
        type            symmetryPlane;
    }
    obstacle
    {
        type            zeroGradient;
    }
    defaultFaces
    {
        type            empty;
    }
}


// ************************************************************************* //
