/*--------------------------------*- C++ -*----------------------------------*\
| =========                 |                                                 |
| \\      /  F ield         | OpenFOAM: The Open Source CFD Toolbox           |
|  \\    /   O peration     | Version:  2206                                  |
|   \\  /    A nd           | Website:  www.openfoam.com                      |
|    \\/     M anipulation  |                                                 |
\*---------------------------------------------------------------------------*/
FoamFile
{
    version     2.0;
    format      ascii;
    arch        "LSB;label=32;scalar=64";
    class       volScalarField;
    location    "0.06";
    object      T;
}
// * * * * * * * * * * * * * * * * * * * * * * * * * * * * * * * * * * * * * //

dimensions      [0 0 0 1 0 0 0];

internalField   nonuniform List<scalar> 
4800
(
1
1
1
1
1
1
1
1
1
1
1
1
1
1
1
1
1
1
1
1
1
1
1
1
1
1
1
1
1
1
1
1
1
1
1
1
1
1
1
1
1
1
1
1
1
1
1
1
1
1
1
1
1
1
1
1
1
1
1
1
1
1
1
1
1
1
1
1
1
1
1
1
1
1
1
1
1
1
1
1
1
1
1
1
1
1
1
1
1
1
1
1
1
1
1
1
1
1
1
1
1
1
1
1
1
1
1
1
1
1
1
1
1
1
1
1
1
1
1
1
1
1
1
1
1
1
1
1
1
1
1
1
1
1
1
1
1
1
1
1
1
1
1
1
1
1
1
1
1
1
1
1
1
1
1
1
1
1
1
1
1
1
1
1
1
1
1
1
1
1
1
1
1
1
1
1
1
1
1
1
1
1
1
1
1
1
1
1
1
1
1
1
1
1
1
1
1
1
1
1
1
1
1
1
1
1
1
1
1
1
1
1
1
1
1
1
1
1
1
1
1
1
1
1
1
1
1
1
1
1
1
1
1
1
1
1
1
1
1
1
1
1
1
1
1
1
1
1
1
1
1
1
1
1
1
1
1
1
1
1
1
1
1
1
1
1
1
1
1
1
1
1
1
1
1
1
1
1
1
1
1
1
1
1
1
1
1
1
1
1
1
1
1
1
1
1
1
1
1
1
1
1
1
1
1
1
1
1
1
1
1
1
1
1
1
1
1
1
1
1
1
1
1
1
1
1
1
1
1
1
1
1
1
1
1
1
1
1
1
1
1
1
1
1
1
1
1
1
1
1
1
1
1
1
1
1
1
1
1
1
1
1
1
1
1
1
1
1
1
1
1
1
1
1
1
1
1
1
1
1
1
1
1
1
1
1
1
1
1
1
1
1
1
1
1
1
1
1
1
1
1
1
1
1
1
1
1
1
1
1
1
1
1
1
1
1
1
1
1
1
1
1
1
1
1
1
1
1
1
1
1
1
1
1
1
1
1
1
1
1
1
1
1
1
1
1
1
1
1
1
1
1
1
1
1
1
1
1
1
1
1
1
1
1
1
1
1
1
1
1
1
1
1
1
1
1
1
1
1
1
1
1
1
1
1
1
1
1
1
1
1
1
1
1
1
1
1
1
1
1
1
1
1
1
1
1
1
1
1
1
1
1
1
1
1
1
1
1
1
1
1
1
1
1
1
1
1
1
1
1
1
1
1
1
1
1
1
1
1
1
1
1
1
1
1
1
1
1
1
1
1
1
1
1
1
1
1
1
1
1
1
1
1
1
1
1
1
1
1
1
1
1
1
1
1
1
1
1
1
1
1
1
1
1
1
1
1
1
1
1
1
1
1
1
1
1
1
1
1
1
1
1
1
1
1
1
1
1
1
1
1
1
1
1
1
1
1
1
1
1
1
1
1
1
1
1
1
1
1
1
1
1
1
1
1
1
1
1
1
1
1
1
1
1
1
1
1
1
1
1
1
1
1
1
1
1
1
1
1
1
1
1
1
1
1
1
1
1
1
1
1
1
1
1
1
1
1
1
1
1
1
1
1
1
1
1
1
1
1
1
1
1
1
1
1
1
1
1
1
1
1
1
1
1
1
1
1
1
1
1
1
1
1
1
1
1
1
1
1
1
1
1
1
1
1
1
1
1
1
1
1
1
1
1
1
1
1
1
1
1
1
1
1
1
1
1
1
1
1
1
1
1
1
1
1
1
1
1
1
1
1
1
1
1
1
1
1
1
1
1
1
1
1
1
1
1
1
1
1
1
1
1
1
1
1
1
1
1
1
1
1
1
1
1
1
1
1
1
1
1
1
1
1
1
1
1
1
1
1
1
1
1
1
1
1
1
1
1
1
1
1
1
1
1
1
1
1
1
1
1
1
1
1
1
1
1
1
1
1
1
1
1
1
1
1
1
1
1
1
1
1
1
1
1
1
1
1
1
1
1
1
1
1
1
1
1
1
1
1
1
1
1
1
1
1
1
1
1
1
1
1
1
1
1
1
1
1
1
1
1
1
1
1
1
1
1
1
1
1
1
1
1
1
1
1
1
1
1
1
1
1
1
1
1
1
1
1
1
1
1
1
1
1
1
1
1
1
1
1
1
1
1
1
1
1
1
1
1
1
1
1
1
1
1
1
1
1
1
1
1
1
1
1
1
1
1
1
1
1
1
1
1
1
1
1
1
1
1
1
1
1
1
1
1
1
1
1
1
1
1
1
1
1
1
1
1
1
1
1
1
1
1
1
1
1
1
1
1
1
1
1
1
1
1
1
1
1
1
1
1
1
1
1
1
1
1
1
1
1
1
1
1
1
1
1
1
1
1
1
1
1
1
1
1
1
1
1
1
1
1
1
1
1
1
1
1
1
1
1
1
1
1
1
1
1
1
1
1
1
1
1
1
1
1
1
1
1
1
1
1
1
1
1
1
1
1
1
1
1
1
1
1
1
1
1
1
1
1
1
1
1
1
1
1
1
1
1
1
1
1
1
1
1
1
1
1
1
1
1
1
1
1
1
1
1
1
1
1
1
1
1
1
1
1
1
1
1
1
1
1
1
1
1
1
1
1
1
1
1
1
1
1
1
1
1
1
1
1
1
1
1
1
1
1
1
1
1
1
1
1
1
1
1
1
1
1
1
1
1
1
1
1
1
1
1
1
1
1
1
1
1
1
1
1
1
1
1
1
1
1
1
1
1
1
1
1
1
1
1
1
1
1
1
1
1
1
1
1
1
1
1
1
1
1
1
1
1
1
1
1
1
1
1
1
1
1
1
1
1
1
1
1
1
1
1
1
1
1
1
1
1
1
1
1
1
1
1
1
1
1
1
1
1
1
1
1
1
1
1
1
1
1
1
1
1
1
1
1
1
1
1
1
1
1
1
1
1
1
1
1
1
1
1
1
1
1
1
1
1
1
1
1
1
1
1
1
1
1
1
1
1
1
1
1
1
1
1
1
1
1
1
1
1
1
1
1
1
1
1
1
1
1
1
1
1
1
1
1
1
1
1
1
1
1
1
1
1
1
1
1
1
1
1
1
1
1
1
1
1
1
1
1
1
1
1
1
1
1
1
1
1
1
1
1
1
1
1
1
1
1
1
1
1
1
1
1
1
1
1
1
1
1
1
1
1
1
1
1
1
1
1
1
1
1
1
1
1
1
1
1
1
1
1
1
1
1
1
1
1
1
1
1
1
1
1
1
1
1
1
1
1
1
1
1
1
1
1
1
1
1
1
1
1
1
1
1
1
1
1
1
1
1
1
1
1
1
1
1
1
1
1
1
1
1
1
1
1
1
1
1
1
1
1
1
1
1
1
1
1
1
1
1
1
1
1
1
1
1
1
1
1
1
1
1
1
1
1
1
1
1
1
1
1
1
1
1
1
1
1
1
1
1
1
1
1
1
1
1
1
1
1
1
1
1
1
1
1
1
1
1
1
1
1
1
1
1
1
1
1
1
1
1
1
1
1
1
1
1
1
1
1
1
1
1
1
1
1
1
1
1
1
1
1
1
1
1
1
1
1
1
1
1
1
1
1
1
1
1
1
1
1
1
1
1
1
1
1
1
1
1
1
1
1
1
1
1
1
1
1
1
1
1
1
1
1
1
1
1
1
1
1.0724
1.16809
1.26565
1.34804
1.42813
1.52004
1.576
1.61014
1.65639
1.6841
1.68044
1.66185
1.63306
1.6
1.56618
1.53386
1.51898
1.51369
1.50632
1.50493
1.50696
1.51224
1.51955
1.52761
1.53276
1.53301
1.53176
1.53076
1.53149
1.53335
1.5352
1.53647
1.5372
1.53704
1.53636
1.53576
1.53527
1.5342
1.53212
1.52967
1.5268
1.52342
1.52004
1.51686
1.5133
1.51187
1.51201
1.51213
1.51215
1.51213
1.51201
1.51154
1.51035
1.50825
1.50712
1.50712
1.50581
1.50484
1.50469
1.50506
1.50695
1.50819
1.50859
1.5091
1.50967
1.50985
1.50991
1.51014
1.51042
1.51066
1.51093
1.5114
1.51234
1.51424
1.51774
1.52296
1.52699
1.52793
1.52796
1.52796
1.00032
1.0028
1.01445
1.05095
1.09124
1.14569
1.2299
1.29185
1.3499
1.40518
1.45188
1.48425
1.49714
1.54031
1.55785
1.55346
1.5559
1.5598
1.55521
1.54355
1.53519
1.53062
1.52787
1.52884
1.53062
1.53205
1.5324
1.53354
1.53574
1.5379
1.5389
1.53927
1.53922
1.53901
1.53853
1.53796
1.53739
1.536
1.53326
1.52961
1.52603
1.52275
1.51975
1.51706
1.51405
1.51284
1.51299
1.51326
1.51336
1.51331
1.513
1.51214
1.51035
1.50771
1.50614
1.50594
1.50518
1.5045
1.5045
1.50515
1.50728
1.50861
1.50916
1.50981
1.5104
1.51088
1.51129
1.51149
1.51161
1.51171
1.5119
1.51239
1.51356
1.51589
1.51981
1.52484
1.52818
1.52883
1.52884
1.52884
1
1
0.999985
1.00004
1.00005
1.00062
1.00523
1.02108
1.05352
1.12884
1.22106
1.34595
1.46676
1.55829
1.59292
1.60253
1.60365
1.60226
1.59715
1.58465
1.56116
1.54226
1.53567
1.53666
1.53883
1.54083
1.54288
1.54404
1.5454
1.54648
1.54704
1.54725
1.54737
1.54745
1.54734
1.54664
1.54529
1.54317
1.53997
1.53542
1.53035
1.52641
1.5234
1.52143
1.51999
1.5189
1.51883
1.51892
1.51886
1.51861
1.51796
1.51647
1.51395
1.51101
1.50904
1.50856
1.50827
1.50761
1.50761
1.50842
1.51074
1.5118
1.51256
1.5136
1.51451
1.51515
1.51545
1.51539
1.51518
1.51509
1.51516
1.51562
1.51688
1.51934
1.52353
1.5286
1.53148
1.53184
1.53182
1.53174
1
1
1
1
1
1
0.999994
1.00001
0.999981
1.00051
1.00407
1.03077
1.1272
1.26359
1.41306
1.49083
1.56289
1.58533
1.58215
1.57967
1.58104
1.57799
1.57224
1.56953
1.56604
1.56329
1.5577
1.5533
1.5505
1.55089
1.5529
1.55576
1.55828
1.5594
1.55928
1.55855
1.55688
1.55365
1.5489
1.54349
1.53839
1.53352
1.53042
1.52885
1.52866
1.52815
1.52753
1.52719
1.52671
1.52595
1.5248
1.52251
1.51919
1.51571
1.51287
1.51208
1.51232
1.51218
1.51219
1.51308
1.51584
1.51698
1.5182
1.51985
1.52124
1.52183
1.52186
1.5217
1.52129
1.52092
1.52095
1.52147
1.52282
1.52542
1.52973
1.53468
1.53693
1.53711
1.53706
1.53681
1
1
1
1
1
1
1
1
1
0.999999
1
0.999975
1.00033
1.00489
1.04879
1.14723
1.27517
1.41293
1.50239
1.58265
1.60032
1.60588
1.60487
1.60035
1.5938
1.57793
1.56434
1.55797
1.55761
1.55871
1.56171
1.56372
1.56516
1.56598
1.56589
1.56521
1.56382
1.56149
1.55778
1.55304
1.54769
1.54156
1.53801
1.53645
1.53564
1.53503
1.53423
1.5334
1.53255
1.53141
1.52969
1.52702
1.52396
1.52057
1.51741
1.51613
1.5162
1.51611
1.51627
1.51788
1.52054
1.52167
1.52357
1.52597
1.52779
1.52861
1.52873
1.52867
1.52828
1.52789
1.52785
1.52805
1.52921
1.53202
1.53662
1.54138
1.54319
1.54325
1.54315
1.54278
1
1
1
1
1
1
1
1
1
1
1
1
0.999999
1
0.999998
1.00077
1.00736
1.06247
1.16691
1.30498
1.42767
1.51005
1.57131
1.57831
1.57855
1.57972
1.57426
1.57038
1.5709
1.57212
1.57101
1.56758
1.56516
1.56423
1.5638
1.56323
1.56312
1.56273
1.56128
1.55839
1.55392
1.54793
1.54344
1.54173
1.54038
1.53905
1.53777
1.53635
1.53501
1.5336
1.53115
1.52839
1.52531
1.52168
1.51864
1.51759
1.51758
1.51761
1.5179
1.52047
1.52301
1.52459
1.52712
1.53009
1.53204
1.53292
1.53326
1.53325
1.53306
1.53277
1.53272
1.53295
1.53417
1.53714
1.54192
1.54659
1.54816
1.54818
1.54809
1.54774
1
1
1
1
1
1
1
1
1
1
1
1
1
1
1
1
0.999991
1.00007
1.00149
1.0136
1.08539
1.1927
1.3309
1.43525
1.52236
1.57282
1.57842
1.58353
1.58356
1.58171
1.57288
1.56238
1.56098
1.56113
1.56165
1.56222
1.5622
1.56128
1.55947
1.55668
1.5529
1.54877
1.5458
1.54422
1.54182
1.53949
1.53742
1.53535
1.53325
1.53128
1.52927
1.52687
1.52364
1.52013
1.51772
1.51736
1.5172
1.51689
1.51765
1.52113
1.52329
1.5252
1.52821
1.5314
1.53339
1.53441
1.53496
1.53496
1.53479
1.53466
1.53478
1.53551
1.53725
1.54045
1.54517
1.54938
1.55073
1.5508
1.55076
1.55055
1
1
1
1
1
1
1
1
1
1
1
1
1
1
1
1
1
1
1
0.999989
1.00026
1.00291
1.02574
1.11163
1.22478
1.36301
1.45567
1.52107
1.56174
1.56675
1.56261
1.56122
1.56233
1.5648
1.56426
1.56286
1.5611
1.55789
1.55419
1.55014
1.54656
1.54348
1.543
1.54227
1.54099
1.53901
1.53649
1.53384
1.53092
1.52804
1.52579
1.52375
1.52082
1.5173
1.51513
1.51497
1.51517
1.51552
1.51728
1.51977
1.52125
1.52365
1.52712
1.53048
1.53272
1.53413
1.53483
1.53485
1.53474
1.53468
1.53501
1.5362
1.53851
1.5422
1.54695
1.55047
1.55141
1.55146
1.55145
1.55138
1
1
1
1
1
1
1
1
1
1
1
1
1
1
1
1
1
1
1
1
1
0.999997
1
1.00073
1.00612
1.04751
1.15285
1.2742
1.39221
1.48684
1.53489
1.55885
1.56786
1.56799
1.56646
1.56262
1.55716
1.55095
1.54755
1.545
1.54118
1.53889
1.53774
1.53637
1.53475
1.53295
1.53042
1.5277
1.52486
1.52245
1.52128
1.51978
1.51741
1.51493
1.5131
1.51211
1.51173
1.51206
1.51449
1.51697
1.51847
1.5214
1.52562
1.52927
1.5317
1.53293
1.53349
1.53379
1.53395
1.53411
1.53458
1.53585
1.53832
1.54234
1.54736
1.55067
1.55136
1.55137
1.55134
1.55117
1
1
1
1
1
1
1
1
1
1
1
1
1
1
1
1
1
1
1
1
1
1
1
1
0.999994
1.00011
1.00205
1.01703
1.08103
1.1937
1.32957
1.42671
1.50519
1.53834
1.54459
1.55044
1.55133
1.54818
1.54596
1.54575
1.5433
1.53757
1.53123
1.52755
1.525
1.52291
1.52177
1.52065
1.51886
1.51736
1.51593
1.514
1.51188
1.51014
1.50823
1.50694
1.5067
1.5074
1.51025
1.51225
1.51416
1.51744
1.52192
1.52593
1.5288
1.53066
1.53163
1.5323
1.53284
1.53323
1.53376
1.53504
1.5377
1.54195
1.54688
1.54978
1.55025
1.55026
1.55024
1.55016
1
1
1
1
1
1
1
1
1
1
1
1
1
1
1
1
1
1
1
1
1
1
1
1
1
1
0.999999
1
1.00049
1.00482
1.04269
1.12825
1.25727
1.38734
1.46867
1.5322
1.54186
1.54498
1.54451
1.5425
1.53828
1.53122
1.52293
1.51847
1.51593
1.51549
1.51541
1.51478
1.51312
1.51109
1.50781
1.5052
1.50413
1.50348
1.50218
1.50151
1.50169
1.50317
1.50601
1.50819
1.51085
1.51389
1.51752
1.52178
1.5244
1.52624
1.52746
1.52838
1.52937
1.53026
1.53116
1.53265
1.53555
1.54019
1.54512
1.54745
1.54774
1.54785
1.54794
1.54805
1
1
1
1
1
1
1
1
1
1
1
1
1
1
1
1
1
1
1
1
1
1
1
1
1
1
1
1
1
0.999996
1.00013
1.00194
1.01577
1.08784
1.21104
1.34442
1.43198
1.49179
1.52252
1.52359
1.52348
1.52166
1.51761
1.51563
1.51424
1.51217
1.50954
1.50752
1.50596
1.50283
1.49921
1.49693
1.49627
1.49636
1.49666
1.49775
1.49913
1.50073
1.5026
1.50404
1.50647
1.50956
1.51244
1.51647
1.51968
1.52137
1.52272
1.52378
1.52503
1.52629
1.52752
1.52935
1.53268
1.53779
1.54262
1.54444
1.54473
1.54492
1.54512
1.5453
1
1
1
1
1
1
1
1
1
1
1
1
1
1
1
1
1
1
1
1
1
1
1
1
1
1
1
1
1
1
1
0.999998
1.00001
1.00087
1.00944
1.04731
1.16773
1.29691
1.40317
1.45653
1.50689
1.50944
1.50769
1.50685
1.50501
1.50238
1.49809
1.49492
1.49519
1.49451
1.49272
1.49299
1.49364
1.49445
1.49571
1.49706
1.49806
1.49892
1.49963
1.50022
1.50194
1.50465
1.50724
1.51082
1.51456
1.51744
1.5192
1.52045
1.52177
1.52325
1.52483
1.52704
1.53057
1.53556
1.53958
1.54084
1.54113
1.5413
1.54147
1.54165
1
1
1
1
1
1
1
1
1
1
1
1
1
1
1
1
1
1
1
1
1
1
1
1
1
1
1
1
1
1
1
1
1
1
1
1.00024
1.00537
1.03005
1.12043
1.24222
1.3507
1.41655
1.45295
1.48303
1.48316
1.48308
1.48273
1.48341
1.48714
1.49151
1.49363
1.49511
1.49537
1.49515
1.49475
1.49493
1.49508
1.49578
1.49617
1.49634
1.49754
1.5
1.50287
1.50591
1.51005
1.51379
1.51659
1.51837
1.51996
1.52179
1.52374
1.52591
1.52909
1.5335
1.53645
1.53719
1.53745
1.53766
1.53778
1.53801
1
1
1
1
1
1
1
1
1
1
1
1
1
1
1
1
1
1
1
1
1
1
1
1
1
1
1
1
1
1
1
1
1
1
1
1
0.999999
1.00011
1.00226
1.01806
1.06706
1.17759
1.27729
1.36086
1.41234
1.46011
1.47863
1.48284
1.48985
1.49131
1.49179
1.49295
1.49278
1.49165
1.48987
1.48995
1.49053
1.49216
1.49379
1.49536
1.49703
1.49883
1.50121
1.50495
1.50764
1.51027
1.51309
1.51554
1.51733
1.51923
1.5214
1.52425
1.52836
1.53266
1.53442
1.53474
1.5349
1.5351
1.53514
1.5352
1
1
1
1
1
1
1
1
1
1
1
1
1
1
1
1
1
1
1
1
1
1
1
1
1
1
1
1
1
1
1
1
1
1
1
1
1
1
0.999999
1.00004
1.00068
1.00712
1.03353
1.0935
1.19493
1.28231
1.36349
1.41411
1.45753
1.4648
1.47067
1.47547
1.47986
1.48346
1.48724
1.49065
1.4929
1.4949
1.49668
1.4977
1.49771
1.49737
1.4985
1.50185
1.50445
1.50671
1.50934
1.51226
1.51466
1.51664
1.51903
1.52289
1.52842
1.53226
1.53309
1.53322
1.53328
1.53341
1.53337
1.53313
1
1
1
1
1
1
1
1
1
1
1
1
1
1
1
1
1
1
1
1
1
1
1
1
1
1
1
1
1
1
1
1
1
1
1
1
1
1
1
1
1
1
1.00016
1.00148
1.01051
1.03715
1.10545
1.19397
1.28233
1.36228
1.42108
1.4479
1.47604
1.48254
1.49013
1.49578
1.4955
1.49361
1.49357
1.49537
1.49548
1.49412
1.49431
1.49693
1.50148
1.50487
1.50722
1.5103
1.51412
1.51729
1.52004
1.52354
1.52852
1.53146
1.53182
1.53177
1.53159
1.53153
1.53159
1.53158
1
1
1
1
1
1
1
1
1
1
1
1
1
1
1
1
1
1
1
1
1
1
1
1
1
1
1
1
1
1
1
1
1
1
1
1
1
1
1
1
1
1
1
0.999999
1.00002
1.00022
1.00203
1.01108
1.03745
1.10829
1.19494
1.28945
1.36884
1.41639
1.4484
1.47345
1.48081
1.47758
1.47739
1.48468
1.49227
1.49306
1.49314
1.49602
1.50208
1.50729
1.50918
1.51109
1.51502
1.51915
1.5219
1.52463
1.52726
1.52944
1.53035
1.53035
1.53002
1.52969
1.52978
1.53026
1
1
1
1
1
1
1
1
1
1
1
1
1
1
1
1
1
1
1
1
1
1
1
1
1
1
1
1
1
1
1
1
1
1
1
1
1
1
1
1
1
1
1
1
1
1
1
1.00002
1.00024
1.00235
1.01149
1.04527
1.10645
1.20967
1.29533
1.3633
1.42867
1.46018
1.47377
1.48235
1.49444
1.49751
1.49618
1.49582
1.49928
1.50521
1.50818
1.50983
1.51281
1.51885
1.52342
1.52498
1.52598
1.52723
1.52853
1.52914
1.52945
1.52936
1.52913
1.52932
1
1
1
1
1
1
1
1
1
1
1
1
1
1
1
1
1
1
1
1
1
1
1
1
1
1
1
1
1
1
1
1
1
1
1
1
1
1
1
1
1
1
1
1
1
1
1
1
1
1
1.00002
1.00036
1.00246
1.01441
1.04747
1.12186
1.20908
1.30359
1.38686
1.42091
1.4488
1.48036
1.4878
1.48536
1.48673
1.49498
1.50544
1.5088
1.51132
1.51743
1.52489
1.52779
1.52875
1.52893
1.52861
1.52883
1.52938
1.5295
1.52909
1.52865
1
1
1
1
1
1
1
1
1
1
1
1
1
1
1
1
1
1
1
1
1
1
1
1
1
1
1
1
1
1
1
1
1
1
1
1
1
1
1
1
1
1
1
1
1
1
1
1
1
1
1
1
1
1.00004
1.00044
1.00342
1.01539
1.05611
1.12763
1.22533
1.30958
1.38103
1.43476
1.47559
1.48261
1.48932
1.50249
1.51095
1.51485
1.5201
1.52488
1.52863
1.52933
1.5292
1.52797
1.52654
1.52677
1.52804
1.52835
1.52794
1
1
1
1
1
1
1
1
1
1
1
1
1
1
1
1
1
1
1
1
1
1
1
1
1
1
1
1
1
1
1
1
1
1
1
1
1
1
1
1
1
1
1
1
1
1
1
1
1
1
1
1
1
1
1
1
1.00005
1.00064
1.00399
1.01931
1.06094
1.14349
1.24021
1.32595
1.40357
1.44317
1.46719
1.49239
1.51093
1.51336
1.51527
1.52008
1.52433
1.52647
1.52644
1.52475
1.5241
1.52535
1.52791
1.5289
1
1
1
1
1
1
1
1
1
1
1
1
1
1
1
1
1
1
1
1
1
1
1
1
1
1
1
1
1
1
1
1
1
1
1
1
1
1
1
1
1
1
1
1
1
1
1
1
1
1
1
1
1
1
1
1
1
1
1
1.00008
1.00083
1.00553
1.02407
1.07221
1.15676
1.25514
1.33938
1.40703
1.45408
1.48539
1.51173
1.51506
1.52
1.52503
1.52869
1.52831
1.5264
1.52598
1.52742
1.52863
1
1
1
1
1
1
1
1
1
1
1
1
1
1
1
1
1
1
1
1
1
1
1
1
1
1
1
1
1
1
1
1
1
1
1
1
1
1
1
1
1
1
1
1
1
1
1
1
1
1
1
1
1
1
1
1
1
1
1
1
1
1.00001
1.00013
1.00114
1.00684
1.02868
1.08055
1.16359
1.25629
1.33846
1.40347
1.45473
1.48939
1.49757
1.5092
1.5227
1.5247
1.52168
1.52166
1.52478
1
1
1
1
1
1
1
1
1
1
1
1
1
1
1
1
1
1
1
1
1
1
1
1
1
1
1
1
1
1
1
1
1
1
1
1
1
1
1
1
1
1
1
1
1
1
1
1
1
1
1
1
1
1
1
1
1
1
1
1
1
1
1
1
1.00001
1.00017
1.00138
1.00719
1.02619
1.07024
1.14128
1.23474
1.31394
1.38804
1.43943
1.47632
1.50256
1.51888
1.52064
1.52285
1
1
1
1
1
1
1
1
1
1
1
1
1
1
1
1
1
1
1
1
1
1
1
1
1
1
1
1
1
1
1
1
1
1
1
1
1
1
1
1
1
1
1
1
1
1
1
1
1
1
1
1
1
1
1
1
1
1
1
1
1
1
1
1
1
1
1
1.00001
1.00013
1.00093
1.0046
1.01827
1.05132
1.118
1.20751
1.30598
1.38498
1.44523
1.48355
1.50955
1
1
1
1
1
1
1
1
1
1
1
1
1
1
1
1
1
1
1
1
1
1
1
1
1
1
1
1
1
1
1
1
1
1
1
1
1
1
1
1
1
1
1
1
1
1
1
1
1
1
1
1
1
1
1
1
1
1
1
1
1
1
1
1
1
1
1
1
1
1
1
1.00006
1.00049
1.00302
1.01369
1.04808
1.11894
1.2205
1.31485
1.43641
1
1
1
1
1
1
1
1
1
1
1
1
1
1
1
1
1
1
1
1
1
1
1
1
1
1
1
1
1
1
1
1
1
1
1
1
1
1
1
1
1
1
1
1
1
1
1
1
1
1
1
1
1
1
1
1
1
1
1
1
1
1
1
1
1
1
1
1
1
1
1
1
1
1
1.00004
1.00047
1.00333
1.0173
1.05563
1.21545
1
1
1
1
1
1
1
1
1
1
1
1
1
1
1
1
1
1
1
1
1
1
1
1
1
1
1
1
1
1
1
1
1
1
1
1
1
1
1
1
1
1
1
1
1
1
1
1
1
1
1
1
1
1
1
1
1
1
1
1
1
1
1
1
1
1
1
1
1
1
1
1
1
1
1
1
1
1.00007
1.00067
1.02012
1
1
1
1
1
1
1
1
1
1
1
1
1
1
1
1
1
1
1
1
1
1
1
1
1
1
1
1
1
1
1
1
1
1
1
1
1
1
1
1
1
1
1
1
1
1
1
1
1
1
1
1
1
1
1
1
1
1
1
1
1
1
1
1
1
1
1
1
1
1
1
1
1
1
1
1
1
1
1
1.00018
1
1
1
1
1
1
1
1
1
1
1
1
1
1
1
1
1
1
1
1
1
1
1
1
1
1
1
1
1
1
1
1
1
1
1
1
1
1
1
1
1
1
1
1
1
1
1
1
1
1
1
1
1
1
1
1
1
1
1
1
1
1
1
1
1
1
1
1
1
1
1
1
1
1
1
1
1
1
1
1
1
1
1
1
1
1
1
1
1
1
1
1
1
1
1
1
1
1
1
1
1
1
1
1
1
1
1
1
1
1
1
1
1
1
1
1
1
1
1
1
1
1
1
1
1
1
1
1
1
1
1
1
1
1
1
1
1
1
1
1
1
1
1
1
1
1
1
1
1
1
1
1
1
1
1
1
1
1
1
1
1
1
1
1
1
1
1
1
1
1
1
1
1
1
1
1
1
1
1
1
1
1
1
1
1
1
1
1
1
1
1
1
1
1
1
1
1
1
1
1
1
1
1
1
1
1
1
1
1
1
1
1
1
1
1
1
1
1
1
1
1
1
1
1
1
1
1
1
1
1
1
1
1
1
1
1
1
1
1
1
1
1
1
1
1
1
1
1
1
1
1
1
1
1
1
1
1
1
1
1
1
1
1
1
1
1
1
1
1
1
1
1
1
1
1
1
1
1
1
1
1
1
1
1
1
1
1
1
1
1
1
1
1
1
1
1
1
1
1
1
1
1
1
1
1
1
1
1
1
1
1
1
1
1
1
1
1
1
1
1
1
1
1
1
1
1
1
1
1
1
1
1
1
1
1
1
1
1
1
1
1
1
1
1
1
1
1
1
1
1
1
1
1
1
1
1
1
1
1
1
1
1
1
1
1
1
1
1
1
1
1
1
1
1
1
1
1
1
1
1
1
1
1
1
1
1
1
1
1
1
1
1
1
1
1
1
1
1
1
1
1
1
1
1
1
1
1
1
1
1
1
1
1
1
1
1
1
1
1
1
1
1
1
1
1
1
1
1
1
1
1
1
1
1
1
1
1
1
1
1
1
1
1
1
1
1
1
1
1
1
1
1
1
1
1
1
1
1
1
1
1
1
1
1
1
1
1
1
1
1
1
1
1
1
1
1
1
1
1
1
1
1
1
1
1
1
1
1
1
1
1
1
1
1
1
1
1
1
1
1
1
1
1
1
1
1
1
1
1
1
1
1
1
1
1
1
1
1
1
1
1
1
1
1
1
1
1
1
1
1
1
1
1
1
1
1
1
1
1
1
1
1
1
1
1
1
1
1
1
1
1
1
1
1
1
1
1
1
1
1
1
1
1
1
1
1
1
1
1
1
1
1
1
1
1
1
1
1
1
1
1
1
1
1
1
1
1
1
1
1
1
1
1
1
1
1
1
1
1
1
1
1
1
1
1
1
1
1
1
1
1
1
1
1
1
1
1
1
1
1
1
1
1
1
1
1
1
1
1
1
1
1
1
1
1
1
1
1
1
1
1
1
1
1
1
1
1
1
1
1
1
1
1
1
1
1
1
1
1
1
1
1
1
1
1
1
1
1
1
1
1
1
1
1
1
1
1
1
1
1
1
1
1
1
1
1
1
1
1
1
1
1
1
1
1
1
1
1
1
1
1
1
1
1
1
1
1
1
1
1
1
1
1
1
1
1
1
1
1
1
1
1
1
1
1
1
1
1
1
1
1
1
1
1
1
1
1
1
1
1
1
1
1
1
1
1
1
1
1
1
1
1
1
1
1
1
1
1
1
1
1
1
1
1
1
1
1
1
1
1
1
1
1
1
1
1
1
1
1
1
1
1
1
1
1
1
1
1
1
1
1
1
1
1
1
1
1
1
1
1
)
;

boundaryField
{
    inlet
    {
        type            fixedValue;
        value           uniform 1;
    }
    outlet
    {
        type            zeroGradient;
    }
    bottom
    {
        type            symmetryPlane;
    }
    top
    {
        type            symmetryPlane;
    }
    obstacle
    {
        type            zeroGradient;
    }
    defaultFaces
    {
        type            empty;
    }
}


// ************************************************************************* //
