/*--------------------------------*- C++ -*----------------------------------*\
| =========                 |                                                 |
| \\      /  F ield         | OpenFOAM: The Open Source CFD Toolbox           |
|  \\    /   O peration     | Version:  2206                                  |
|   \\  /    A nd           | Website:  www.openfoam.com                      |
|    \\/     M anipulation  |                                                 |
\*---------------------------------------------------------------------------*/
FoamFile
{
    version     2.0;
    format      ascii;
    arch        "LSB;label=32;scalar=64";
    class       volVectorField;
    location    "0.04";
    object      U;
}
// * * * * * * * * * * * * * * * * * * * * * * * * * * * * * * * * * * * * * //

dimensions      [0 1 -1 0 0 0 0];

internalField   nonuniform List<vector> 
4800
(
(3.60606 1.3619e-14 0)
(3.60606 3.04453e-14 0)
(3.60606 1.27922e-14 0)
(3.60606 -3.56061e-15 0)
(3.60606 -1.63728e-14 0)
(3.60606 -3.40459e-14 0)
(3.60606 -3.5006e-14 0)
(3.60606 6.9312e-15 0)
(3.60606 3.36525e-14 0)
(3.60606 8.01005e-14 0)
(3.60606 7.44062e-14 0)
(3.60606 6.12839e-14 0)
(3.60606 5.28625e-14 0)
(3.60606 4.75849e-14 0)
(3.60606 5.16456e-14 0)
(3.60606 -3.18888e-14 0)
(3.60606 -4.94352e-14 0)
(3.60606 -3.89967e-14 0)
(3.60606 -6.51446e-14 0)
(3.60606 -6.42178e-14 0)
(3.60606 2.35874e-14 0)
(3.60606 1.90966e-14 0)
(3.60606 -4.96086e-15 0)
(3.60606 -4.32741e-15 0)
(3.60606 -8.84819e-15 0)
(3.60606 -4.13738e-14 0)
(3.60606 -6.48545e-14 0)
(3.60606 -1.28732e-13 0)
(3.60606 -5.61264e-14 0)
(3.60606 -5.67198e-14 0)
(3.60606 -1.72363e-14 0)
(3.60606 -7.24458e-14 0)
(3.60606 -4.81216e-14 0)
(3.60606 -3.09653e-14 0)
(3.60606 -5.26458e-14 0)
(3.60606 -7.49729e-14 0)
(3.60606 -6.91119e-14 0)
(3.60606 -8.35278e-14 0)
(3.60606 -1.11826e-13 0)
(3.60606 -2.81182e-14 0)
(3.60606 -8.28476e-15 0)
(3.60606 -8.58815e-15 0)
(3.60606 -3.19689e-14 0)
(3.60606 -1.50493e-14 0)
(3.60606 -2.01768e-14 0)
(3.60606 -4.98153e-14 0)
(3.60606 -5.38526e-14 0)
(3.60606 -1.76497e-14 0)
(3.60606 8.14474e-15 0)
(3.60606 8.10807e-15 0)
(3.60606 -2.41442e-14 0)
(3.60606 -7.11956e-14 0)
(3.60606 -5.16989e-14 0)
(3.60606 -6.08605e-14 0)
(3.60606 -5.69165e-14 0)
(3.60606 -8.34744e-14 0)
(3.60606 -5.45594e-14 0)
(3.60606 -1.02184e-13 0)
(3.60606 -1.29986e-13 0)
(3.60606 -9.91805e-14 0)
(3.60606 6.7745e-15 0)
(3.60606 3.09887e-14 0)
(3.60606 -9.80503e-15 0)
(3.60606 2.22638e-14 0)
(3.60606 4.16439e-14 0)
(3.60606 2.74547e-14 0)
(3.60606 -1.06485e-14 0)
(3.60606 -1.49289e-13 0)
(3.60606 -1.29916e-13 0)
(3.60606 -9.67734e-14 0)
(3.60606 -6.62114e-14 0)
(3.60606 -4.93319e-14 0)
(3.60606 -5.45761e-14 0)
(3.60606 -4.06237e-14 0)
(3.60606 -4.93785e-14 0)
(3.60606 -1.21208e-13 0)
(3.60606 -1.05835e-13 0)
(3.60606 -1.47065e-13 0)
(3.60606 -1.19701e-13 0)
(3.60606 -2.55383e-14 0)
(3.60606 -7.85802e-15 0)
(3.60606 2.47376e-15 0)
(3.60606 4.87951e-14 0)
(3.60606 6.83518e-14 0)
(3.60606 5.32425e-14 0)
(3.60606 -2.73047e-15 0)
(3.60606 -9.43063e-14 0)
(3.60606 -1.16747e-13 0)
(3.60606 -3.70697e-14 0)
(3.60606 1.89999e-14 0)
(3.60606 3.03686e-14 0)
(3.60606 4.66814e-14 0)
(3.60606 -1.69196e-14 0)
(3.60606 -1.99968e-14 0)
(3.60606 -4.47644e-14 0)
(3.60606 -7.87136e-14 0)
(3.60606 -1.14503e-13 0)
(3.60606 -1.3791e-13 0)
(3.60606 -8.41679e-14 0)
(3.60606 -4.34975e-14 0)
(3.60606 2.75714e-15 0)
(3.60606 -2.01701e-14 0)
(3.60606 4.99753e-15 0)
(3.60606 4.92918e-14 0)
(3.60606 6.10039e-14 0)
(3.60606 6.9432e-14 0)
(3.60606 2.01768e-14 0)
(3.60606 -8.17808e-15 0)
(3.60606 -8.00672e-14 0)
(3.60606 -5.86168e-14 0)
(3.60606 -6.21441e-14 0)
(3.60606 1.70863e-14 0)
(3.60606 6.98454e-14 0)
(3.60606 8.22809e-14 0)
(3.60606 6.32009e-14 0)
(3.60606 2.83349e-14 0)
(3.60606 4.48211e-14 0)
(3.60606 -8.80152e-15 0)
(3.60606 -7.35127e-15 0)
(3.60606 -3.99479e-14 0)
(3.60606 1.48359e-14 0)
(3.60606 6.3471e-14 0)
(3.60606 1.00007e-13 0)
(3.60606 4.46077e-14 0)
(3.60606 1.44258e-14 0)
(3.60606 1.29889e-14 0)
(3.60606 1.59861e-14 0)
(3.60606 1.07319e-14 0)
(3.60606 -5.72766e-14 0)
(3.60606 1.95434e-14 0)
(3.60606 6.89252e-14 0)
(3.60606 9.96039e-14 0)
(3.60606 1.08679e-13 0)
(3.60606 1.37124e-13 0)
(3.60606 8.55348e-14 0)
(3.60606 4.46277e-14 0)
(3.60606 -4.96519e-14 0)
(3.60606 -7.71733e-14 0)
(3.60606 -6.24841e-14 0)
(3.60606 -8.2741e-14 0)
(3.60606 -9.89971e-14 0)
(3.60606 -9.74202e-14 0)
(3.60606 2.99585e-14 0)
(3.60606 4.37175e-14 0)
(3.60606 -9.81503e-15 0)
(3.60606 -8.12774e-14 0)
(3.60606 -9.42063e-14 0)
(3.60606 -9.79102e-14 0)
(3.60606 -9.32828e-14 0)
(3.60606 -6.77117e-14 0)
(3.60606 -6.66615e-14 0)
(3.60606 -6.05004e-14 0)
(3.60606 -1.85065e-14 0)
(3.60606 2.11937e-14 0)
(3.60606 -2.06802e-14 0)
(3.60606 -3.69931e-14 0)
(3.60606 -1.97067e-14 0)
(3.60606 -7.96804e-15 0)
(3.60606 -5.32825e-14 0)
(3.60606 -1.14574e-13 0)
(3.60606 -7.46462e-15 0)
(3.60606 1.28355e-15 0)
(3.60606 -2.70913e-14 0)
(3.60606 -7.99138e-14 0)
(3.60606 -7.65466e-14 0)
(3.60606 -3.65063e-15 0)
(3.60606 8.00372e-14 0)
(3.60606 8.02239e-14 0)
(3.60606 3.99869e-14 0)
(3.60606 -4.37776e-14 0)
(3.60606 -5.52129e-14 0)
(3.60606 -8.28143e-15 0)
(3.60606 2.85449e-14 0)
(3.60606 7.10456e-15 0)
(3.60606 -2.27039e-14 0)
(3.60606 -2.55044e-15 0)
(3.60606 -2.11603e-14 0)
(3.60606 5.85768e-15 0)
(3.60606 -2.94851e-14 0)
(3.60606 -7.36094e-14 0)
(3.60606 -9.42696e-14 0)
(3.60606 -6.3591e-14 0)
(3.60606 8.13474e-16 0)
(3.60606 -3.30824e-14 0)
(3.60606 -1.24031e-13 0)
(3.60606 -1.9466e-13 0)
(3.60606 -1.40031e-13 0)
(3.60606 -9.69467e-14 0)
(3.60606 -1.18624e-13 0)
(3.60606 -1.26955e-13 0)
(3.60606 -3.868e-14 0)
(3.60606 -4.52478e-14 0)
(3.60606 -3.19022e-14 0)
(3.60606 -6.1794e-14 0)
(3.60606 -2.10876e-13 0)
(3.60606 -3.0733e-13 0)
(3.60606 -2.63829e-13 0)
(3.60606 -1.98201e-13 0)
(3.60606 -2.24729e-13 0)
(3.60606 -1.71414e-13 0)
(3.60606 2.1237e-15 0)
(3.60606 2.33374e-16 0)
(3.60606 -1.44192e-14 0)
(3.60606 -2.6948e-14 0)
(3.60606 -2.08503e-14 0)
(3.60606 -2.78048e-15 0)
(3.60606 2.45576e-14 0)
(3.60606 -4.50078e-16 0)
(3.60606 -2.03935e-14 0)
(3.60606 -9.45497e-15 0)
(3.60606 -7.02455e-15 0)
(3.60606 1.24555e-14 0)
(3.60606 3.51927e-14 0)
(3.60606 -4.89251e-14 0)
(3.60606 -7.63899e-14 0)
(3.60606 -6.31609e-14 0)
(3.60606 -3.92401e-15 0)
(3.60606 7.64365e-14 0)
(3.60606 4.75182e-14 0)
(3.60606 2.24072e-14 0)
(3.60606 -1.59294e-14 0)
(3.60606 -1.01284e-14 0)
(3.60606 1.49859e-14 0)
(3.60606 -1.30823e-14 0)
(3.60606 -8.18841e-14 0)
(3.60606 -1.5497e-13 0)
(3.60606 -1.67099e-13 0)
(3.60606 -1.46872e-13 0)
(3.60606 -3.878e-14 0)
(3.60606 -8.95155e-15 0)
(3.60606 1.49192e-14 0)
(3.60606 1.66795e-14 0)
(3.60606 -1.40358e-14 0)
(3.60606 -4.52345e-14 0)
(3.60606 -8.95921e-14 0)
(3.60606 -1.21724e-13 0)
(3.60606 -1.22168e-13 0)
(3.60606 -1.65875e-13 0)
(3.60606 -1.79184e-13 0)
(3.60606 -2.1001e-13 0)
(3.60606 -8.86153e-15 0)
(3.60606 -1.61528e-14 0)
(3.60606 -1.02251e-14 0)
(3.60606 -1.99134e-14 0)
(3.60606 -5.15222e-14 0)
(3.60606 -6.7635e-14 0)
(3.60606 1.10352e-15 0)
(3.60606 -1.31089e-14 0)
(3.60606 -2.08803e-14 0)
(3.60606 3.98769e-14 0)
(3.60606 4.97819e-14 0)
(3.60606 4.20439e-14 0)
(3.60606 4.11904e-14 0)
(3.60606 -8.33144e-15 0)
(3.60606 3.05719e-15 0)
(3.60606 -1.64395e-14 0)
(3.60606 1.85732e-14 0)
(3.60606 6.12906e-14 0)
(3.60606 4.40643e-14 0)
(3.60606 6.32676e-14 0)
(3.60606 6.32476e-14 0)
(3.60606 9.13824e-14 0)
(3.60606 4.50778e-14 0)
(3.60606 3.00052e-14 0)
(3.60606 3.01485e-14 0)
(3.60606 2.52977e-14 0)
(3.60606 -3.56628e-14 0)
(3.60606 -5.68665e-14 0)
(3.60606 -2.60278e-14 0)
(3.60606 3.35591e-14 0)
(3.60606 -9.06156e-15 0)
(3.60606 9.49164e-15 0)
(3.60606 3.60229e-14 0)
(3.60606 1.80464e-14 0)
(3.60606 5.09588e-14 0)
(3.60606 8.90654e-14 0)
(3.60606 9.40129e-14 0)
(3.60606 1.46322e-13 0)
(3.60606 2.00165e-13 0)
(3.60606 1.44394e-13 0)
(3.60606 -3.95402e-15 0)
(3.60606 -4.08304e-14 0)
(3.60606 -6.3581e-14 0)
(3.60606 -5.66064e-14 0)
(3.60606 -3.39359e-14 0)
(3.60606 -1.57994e-14 0)
(3.60606 9.33161e-15 0)
(3.60606 3.33224e-14 0)
(3.60606 7.08722e-14 0)
(3.60606 6.9352e-14 0)
(3.60606 4.63813e-14 0)
(3.60606 -2.52177e-14 0)
(3.60606 -5.0072e-14 0)
(3.60606 -3.6713e-14 0)
(3.60606 -4.16439e-14 0)
(3.60606 -3.95902e-14 0)
(3.60606 -5.35092e-14 0)
(3.60606 -4.29874e-14 0)
(3.60606 -1.30556e-14 0)
(3.60606 8.46813e-16 0)
(3.60606 2.01401e-14 0)
(3.60606 -1.48526e-14 0)
(3.60606 -1.13353e-14 0)
(3.60606 9.63833e-15 0)
(3.60606 1.30383e-13 0)
(3.60606 1.26395e-13 0)
(3.60606 1.41284e-13 0)
(3.60606 9.56065e-14 0)
(3.60606 1.36524e-14 0)
(3.60606 -2.47876e-14 0)
(3.60606 4.0397e-14 0)
(3.60606 3.89934e-14 0)
(3.60606 -1.84765e-14 0)
(3.60606 -1.63892e-13 0)
(3.60606 -2.10456e-13 0)
(3.60606 -2.15761e-13 0)
(3.60606 -1.54317e-13 0)
(3.60606 -1.20027e-13 0)
(3.60606 -5.71932e-14 0)
(3.60606 -3.63189e-14 0)
(3.60606 2.3204e-15 0)
(3.60606 -1.86065e-14 0)
(3.60606 -3.26656e-14 0)
(3.60606 -2.74747e-14 0)
(3.60606 -7.86803e-15 0)
(3.60606 3.76398e-15 0)
(3.60606 -1.73863e-14 0)
(3.60606 5.0352e-14 0)
(3.60606 5.69965e-14 0)
(3.60606 1.05385e-14 0)
(3.60606 3.23389e-16 0)
(3.60606 -1.18424e-13 0)
(3.60606 -1.50286e-13 0)
(3.60606 -1.25742e-13 0)
(3.60606 -7.84202e-14 0)
(3.60606 1.43058e-14 0)
(3.60606 3.78232e-14 0)
(3.60606 3.94935e-14 0)
(3.60606 5.85868e-14 0)
(3.60606 -1.90133e-14 0)
(3.60606 -1.02341e-13 0)
(3.60606 -1.27019e-13 0)
(3.60606 -5.50928e-14 0)
(3.60606 -3.81066e-14 0)
(3.60606 -2.80382e-14 0)
(3.60606 1.93733e-14 0)
(3.60606 5.24291e-14 0)
(3.60606 8.84319e-14 0)
(3.60606 2.30873e-14 0)
(3.60606 -5.88768e-14 0)
(3.60606 -3.35191e-14 0)
(3.60606 -6.98787e-15 0)
(3.60606 -9.30161e-15 0)
(3.60606 -2.63279e-14 0)
(3.60606 -1.63688e-13 0)
(3.60606 -2.94344e-13 0)
(3.60606 -1.64808e-13 0)
(3.60606 -9.01822e-15 0)
(3.60606 -2.8905e-15 0)
(3.60606 1.9439e-14 0)
(3.60606 -7.3546e-15 0)
(3.60606 -1.82265e-14 0)
(3.60606 -6.37443e-15 0)
(3.60606 1.99368e-14 0)
(3.60606 4.43943e-14 0)
(3.60606 6.14973e-14 0)
(3.60606 4.57112e-14 0)
(3.60606 -3.58462e-14 0)
(3.60606 -5.70599e-14 0)
(3.60606 -6.16706e-14 0)
(3.60606 -6.85385e-14 0)
(3.60606 -8.80152e-14 0)
(3.60606 -9.42763e-14 0)
(3.60606 -8.73884e-14 0)
(3.60606 -6.29409e-14 0)
(3.60606 -1.12353e-14 0)
(3.60606 7.54297e-14 0)
(3.60606 6.7785e-14 0)
(3.60606 5.39927e-14 0)
(3.60606 -7.81468e-15 0)
(3.60606 -1.86065e-14 0)
(3.60606 -1.18487e-14 0)
(3.60606 -6.5728e-14 0)
(3.60606 -8.49547e-14 0)
(3.60606 -1.48119e-13 0)
(3.60606 -1.36614e-13 0)
(3.60606 -8.83052e-14 0)
(3.60606 -8.05306e-14 0)
(3.60606 -8.53081e-14 0)
(3.60606 -9.83737e-14 0)
(3.60606 -1.02734e-13 0)
(3.60606 -8.03439e-14 0)
(3.60606 -6.85352e-14 0)
(3.60606 -5.47561e-14 0)
(3.60606 -1.06235e-13 0)
(3.60606 -1.29739e-13 0)
(3.60606 -4.95886e-14 0)
(3.60606 4.88184e-14 0)
(3.60606 5.06587e-14 0)
(3.60606 1.347e-13 0)
(3.60606 1.7653e-14 0)
(3.60606 3.89734e-14 0)
(3.60606 5.94469e-14 0)
(3.60606 1.18984e-13 0)
(3.60606 1.23261e-13 0)
(3.60606 8.91054e-14 0)
(3.60606 2.67046e-14 0)
(3.60606 -6.84585e-14 0)
(3.60606 -6.61981e-14 0)
(3.60606 -2.25706e-14 0)
(3.60606 -1.58694e-15 0)
(3.60606 6.99521e-14 0)
(3.60606 9.41329e-14 0)
(3.60606 5.03387e-14 0)
(3.60606 -3.92935e-14 0)
(3.60606 -4.6428e-14 0)
(3.60606 -4.10404e-14 0)
(3.60606 2.14037e-15 0)
(3.60606 6.22007e-14 0)
(3.60606 9.97206e-14 0)
(3.60606 9.62533e-14 0)
(3.60606 8.57581e-14 0)
(3.60606 1.00921e-13 0)
(3.60606 7.84369e-14 0)
(3.60606 -7.20791e-15 0)
(3.60606 -1.02778e-13 0)
(3.60606 -1.70326e-13 0)
(3.60606 -1.18204e-13 0)
(3.60606 -7.90503e-14 0)
(3.60606 -6.24941e-14 0)
(3.60606 -1.11959e-13 0)
(3.60606 -1.05592e-13 0)
(3.60606 -5.89969e-14 0)
(3.60606 -4.78416e-14 0)
(3.60606 -5.55596e-14 0)
(3.60606 7.17424e-14 0)
(3.60606 1.17094e-13 0)
(3.60606 1.34066e-13 0)
(3.60606 1.44995e-13 0)
(3.60606 2.16589e-13 0)
(3.60606 1.3269e-15 0)
(3.60606 4.89918e-14 0)
(3.60606 4.02036e-14 0)
(3.60606 6.10839e-14 0)
(3.60606 3.99802e-14 0)
(3.60606 2.02202e-14 0)
(3.60606 -1.90033e-14 0)
(3.60606 -9.84503e-14 0)
(3.60606 -1.06135e-13 0)
(3.60606 -1.3398e-13 0)
(3.60606 -1.03131e-13 0)
(3.60606 -5.59097e-15 0)
(3.60606 2.40442e-14 0)
(3.60606 1.21221e-14 0)
(3.60606 -2.98252e-14 0)
(3.60606 -6.31776e-15 0)
(3.60606 -9.86837e-16 0)
(3.60606 -3.36058e-14 0)
(3.60606 7.52597e-14 0)
(3.60606 1.53773e-13 0)
(3.60606 1.77517e-13 0)
(3.60606 1.56757e-13 0)
(3.60606 1.39647e-13 0)
(3.60606 1.10979e-13 0)
(3.60606 9.93772e-14 0)
(3.60606 9.62166e-14 0)
(3.60606 -6.11772e-15 0)
(3.60606 -1.05818e-14 0)
(3.60606 -4.62747e-15 0)
(3.60606 -1.26955e-14 0)
(3.60606 -5.9667e-14 0)
(3.60606 -7.65299e-14 0)
(3.60606 -2.77215e-14 0)
(3.60606 -1.74263e-14 0)
(3.60606 2.07636e-14 0)
(3.60606 6.62881e-14 0)
(3.60606 9.08957e-14 0)
(3.60606 2.45776e-14 0)
(3.60606 -7.64799e-15 0)
(3.60606 1.35825e-13 0)
(3.60606 -8.76818e-15 0)
(3.60606 -1.92067e-14 0)
(3.60606 -5.69998e-14 0)
(3.60606 -4.46977e-14 0)
(3.60606 -5.29992e-14 0)
(3.60606 -4.30074e-14 0)
(3.60606 -2.46743e-14 0)
(3.60606 -4.04637e-14 0)
(3.60606 -3.96435e-14 0)
(3.60606 -5.64031e-14 0)
(3.60606 -6.58114e-14 0)
(3.60606 -1.56627e-14 0)
(3.60606 -4.79816e-14 0)
(3.60606 -9.18992e-14 0)
(3.60606 -7.9197e-14 0)
(3.60606 -8.85653e-14 0)
(3.60606 -9.39396e-14 0)
(3.60606 -8.68683e-14 0)
(3.60606 -2.94284e-14 0)
(3.60606 1.47662e-13 0)
(3.60606 1.83472e-13 0)
(3.60606 1.56507e-13 0)
(3.60606 8.98355e-14 0)
(3.60606 -1.41958e-14 0)
(3.60606 8.23476e-15 0)
(3.60606 3.86767e-14 0)
(3.60606 6.58014e-14 0)
(3.60606 1.35323e-14 0)
(3.60606 -3.15721e-14 0)
(3.60606 -3.4556e-14 0)
(3.60606 -6.83218e-14 0)
(3.60606 -1.41361e-13 0)
(3.60606 -2.41345e-13 0)
(3.60606 -1.96177e-13 0)
(3.60606 -1.58317e-13 0)
(3.60606 -8.91121e-14 0)
(3.60606 -6.69649e-14 0)
(3.60606 -5.11788e-14 0)
(3.60606 -1.42358e-15 0)
(3.60606 7.86036e-14 0)
(3.60606 1.43225e-14 0)
(3.60606 -1.26322e-14 0)
(3.60606 -2.21038e-15 0)
(3.60606 -1.21654e-14 0)
(3.60606 6.16106e-15 0)
(3.60606 2.70513e-14 0)
(3.60606 2.29806e-14 0)
(3.60606 1.00514e-13 0)
(3.60606 1.41504e-13 0)
(3.60606 1.46249e-13 0)
(3.60606 4.38042e-14 0)
(3.60606 -5.67665e-14 0)
(3.60606 -9.71334e-14 0)
(3.60606 -1.21691e-13 0)
(3.60606 -7.95804e-14 0)
(3.60606 -3.90067e-14 0)
(3.60606 -4.19239e-14 0)
(3.60606 3.09553e-14 0)
(3.60606 4.42476e-14 0)
(3.60606 7.68966e-14 0)
(3.60606 3.31691e-14 0)
(3.60606 2.81215e-14 0)
(3.60606 -1.03751e-14 0)
(3.60606 -8.78418e-14 0)
(3.60606 -9.86637e-14 0)
(3.60606 -7.83135e-14 0)
(3.60606 -2.26206e-14 0)
(3.60606 -5.27024e-14 0)
(3.60606 -7.11056e-14 0)
(3.60606 -4.97353e-14 0)
(3.60606 -3.55061e-15 0)
(3.60606 -6.69449e-14 0)
(3.60606 -1.69493e-13 0)
(3.60606 -2.05852e-13 0)
(3.60606 -1.83342e-13 0)
(3.60606 -1.37287e-13 0)
(3.60606 -1.84055e-13 0)
(3.60606 -1.46609e-13 0)
(3.60606 -6.63981e-14 0)
(3.60606 2.17664e-15 0)
(3.60606 -2.80715e-15 0)
(3.60606 -6.28108e-15 0)
(3.60606 -1.85599e-14 0)
(3.60606 -8.92821e-15 0)
(3.60606 1.60794e-14 0)
(3.60606 5.00486e-14 0)
(3.60606 7.80735e-14 0)
(3.60606 8.06473e-14 0)
(3.60606 9.57765e-14 0)
(3.60606 4.05803e-14 0)
(3.60606 -2.96851e-14 0)
(3.60606 -1.18584e-13 0)
(3.60606 -1.92913e-13 0)
(3.60606 -1.67662e-13 0)
(3.60606 -1.55077e-13 0)
(3.60606 -1.00431e-13 0)
(3.60606 4.89418e-15 0)
(3.60606 3.96602e-14 0)
(3.60606 1.29956e-14 0)
(3.60606 -2.26239e-14 0)
(3.60606 -4.00703e-14 0)
(3.60606 -1.3688e-13 0)
(3.60606 -1.7374e-13 0)
(3.60606 -1.78177e-13 0)
(3.60606 -1.7537e-13 0)
(3.60606 -1.05765e-13 0)
(3.60606 -1.75747e-13 0)
(3.60606 -1.9438e-13 0)
(3.60606 -1.7499e-13 0)
(3.60606 -1.11603e-13 0)
(3.60606 3.0722e-14 0)
(3.60606 8.98055e-14 0)
(3.60606 3.888e-14 0)
(3.60606 -2.91384e-14 0)
(3.60606 -7.80968e-14 0)
(3.60606 -1.38144e-13 0)
(3.60606 -1.13766e-13 0)
(3.60606 -1.39897e-13 0)
(3.60606 -1.31386e-13 0)
(3.60606 -7.41104e-14 0)
(3.60606 -1.71363e-14 0)
(3.60606 -5.29425e-15 0)
(3.60606 -1.48159e-14 0)
(3.60606 -3.82299e-14 0)
(3.60606 -1.37457e-14 0)
(3.60606 -3.66897e-14 0)
(3.60606 -4.53745e-15 0)
(3.60606 3.63863e-14 0)
(3.60606 3.77499e-14 0)
(3.60606 1.84332e-14 0)
(3.60606 2.63312e-14 0)
(3.60606 4.91085e-14 0)
(3.60606 1.50093e-14 0)
(3.60606 8.26809e-15 0)
(3.60606 -2.93284e-14 0)
(3.60606 -1.52786e-13 0)
(3.60606 -1.03725e-13 0)
(3.60606 -1.05258e-13 0)
(3.60606 -1.09756e-13 0)
(3.60606 -1.79271e-13 0)
(3.60606 -1.86419e-13 0)
(3.60606 -2.28666e-13 0)
(3.60606 -2.44009e-13 0)
(3.60606 -2.66953e-13 0)
(3.60606 -2.79205e-13 0)
(3.60606 -2.66409e-13 0)
(3.60606 -1.78631e-13 0)
(3.60606 -8.75885e-14 0)
(3.60606 -1.05018e-14 0)
(3.60606 7.05355e-14 0)
(3.60606 -1.12953e-14 0)
(3.60606 -3.43093e-14 0)
(3.60606 2.85349e-14 0)
(3.60606 8.81019e-14 0)
(3.60606 5.33025e-14 0)
(3.60606 1.40991e-14 0)
(3.60606 1.18384e-13 0)
(3.60606 2.54411e-14 0)
(3.60606 -3.39125e-14 0)
(3.60606 -8.99185e-14 0)
(3.60606 7.56797e-16 0)
(3.60606 8.0814e-15 0)
(3.60606 3.12987e-14 0)
(3.60606 2.55711e-15 0)
(3.60606 -7.14157e-14 0)
(3.60606 -1.23705e-13 0)
(3.60606 -1.00107e-13 0)
(3.60606 -8.21409e-14 0)
(3.60606 -5.64731e-14 0)
(3.60606 -6.50112e-15 0)
(3.60606 4.00102e-14 0)
(3.60606 5.83367e-14 0)
(3.60606 1.42341e-13 0)
(3.60606 1.64098e-13 0)
(3.60606 1.38477e-13 0)
(3.60606 6.50212e-14 0)
(3.60606 -3.31424e-14 0)
(3.60606 -4.88584e-14 0)
(3.60606 5.26091e-15 0)
(3.60606 -5.49262e-14 0)
(3.60606 -2.27076e-13 0)
(3.60606 -2.65012e-13 0)
(3.60606 -2.28016e-13 0)
(3.60606 -1.29042e-13 0)
(3.60606 -1.23805e-13 0)
(3.60606 -2.00578e-13 0)
(3.60606 -1.07922e-13 0)
(3.60606 -8.55581e-14 0)
(3.60606 -5.68632e-14 0)
(3.60606 2.63212e-14 0)
(3.60606 -3.09053e-14 0)
(3.60606 5.31125e-14 0)
(3.60606 1.06605e-13 0)
(3.60606 1.40541e-13 0)
(3.60606 2.24979e-13 0)
(3.60606 2.76194e-13 0)
(3.60606 3.09097e-13 0)
(3.60606 2.08449e-13 0)
(3.60606 5.05321e-14 0)
(3.60606 -9.34651e-14 0)
(3.60606 -1.10186e-14 0)
(3.60606 -3.87067e-15 0)
(3.60606 7.43462e-15 0)
(3.60606 2.01835e-14 0)
(3.60606 -2.39108e-14 0)
(3.60606 -3.72231e-14 0)
(3.60606 -2.40908e-14 0)
(3.60606 -2.81915e-14 0)
(3.60606 -6.1734e-14 0)
(3.60606 -1.73797e-14 0)
(3.60606 1.42091e-14 0)
(3.60606 1.03675e-13 0)
(3.60606 1.70346e-13 0)
(3.60606 1.77794e-13 0)
(3.60606 1.89816e-13 0)
(3.60606 2.09653e-13 0)
(3.60606 1.65202e-13 0)
(3.60606 1.59664e-13 0)
(3.60606 8.51214e-14 0)
(3.60606 4.81683e-14 0)
(3.60606 1.66929e-14 0)
(3.60606 -1.56627e-14 0)
(3.60606 -3.30257e-14 0)
(3.60606 -4.00069e-14 0)
(3.60606 -6.07938e-14 0)
(3.60606 -2.18304e-14 0)
(3.60606 -1.63362e-16 0)
(3.60606 -4.9942e-14 0)
(3.60606 -1.30082e-13 0)
(3.60606 7.94204e-14 0)
(3.60606 2.66396e-13 0)
(3.60606 3.29877e-13 0)
(3.60606 3.27997e-13 0)
(3.60606 2.76588e-13 0)
(3.60606 2.91677e-13 0)
(3.60606 3.79182e-13 0)
(3.60606 2.84726e-13 0)
(3.60606 2.54291e-13 0)
(3.60606 1.45648e-13 0)
(3.60606 5.86711e-14 0)
(3.60606 -5.72099e-15 0)
(3.60606 -2.96284e-14 0)
(3.60606 -3.6623e-14 0)
(3.60606 -7.82135e-15 0)
(3.60606 1.27522e-14 0)
(3.60606 5.9877e-15 0)
(3.60606 3.12221e-14 0)
(3.60606 5.72766e-14 0)
(3.60606 4.4371e-14 0)
(3.60606 3.45093e-14 0)
(3.60606 2.98685e-14 0)
(3.60606 1.08685e-14 0)
(3.60606 4.68414e-15 0)
(3.60606 1.86596e-13 0)
(3.60606 2.55031e-13 0)
(3.60606 1.79864e-13 0)
(3.60606 1.52953e-13 0)
(3.60606 1.20397e-13 0)
(3.60606 6.30976e-14 0)
(3.60606 4.4121e-14 0)
(3.60606 7.22191e-14 0)
(3.60606 3.05286e-14 0)
(3.60606 4.80616e-14 0)
(3.60606 5.92769e-15 0)
(3.60606 2.5141e-14 0)
(3.60606 9.13991e-14 0)
(3.60606 9.02189e-14 0)
(3.60606 5.53029e-14 0)
(3.60606 3.98869e-14 0)
(3.60606 1.07245e-13 0)
(3.60606 1.82145e-13 0)
(3.60606 2.36981e-13 0)
(3.60606 2.76438e-13 0)
(3.60606 1.5276e-13 0)
(3.60606 1.336e-13 0)
(3.60606 1.59931e-13 0)
(3.60606 1.45722e-13 0)
(3.60606 1.51566e-13 0)
(3.60606 1.68339e-13 0)
(3.60606 2.2828e-13 0)
(3.60606 1.61028e-15 0)
(3.60606 -3.30624e-14 0)
(3.60606 1.42758e-14 0)
(3.60606 2.73647e-14 0)
(3.60606 -1.3719e-14 0)
(3.60606 -7.62432e-14 0)
(3.60606 -9.4463e-14 0)
(3.60606 -9.46997e-14 0)
(3.60606 -4.15072e-14 0)
(3.60606 -4.03436e-14 0)
(3.60606 -8.65649e-14 0)
(3.60606 -1.00284e-13 0)
(3.60606 -7.97571e-14 0)
(3.60606 -7.81835e-14 0)
(3.60606 -3.4936e-14 0)
(3.60606 -2.88717e-14 0)
(3.60606 -4.31441e-14 0)
(3.60606 -8.2941e-14 0)
(3.60606 -8.81319e-14 0)
(3.60606 -2.45909e-14 0)
(3.60606 -4.04403e-15 0)
(3.60606 -2.43875e-14 0)
(3.60606 -9.55165e-15 0)
(3.60606 4.50244e-14 0)
(3.60606 1.67226e-13 0)
(3.60606 9.33528e-14 0)
(3.60606 1.68662e-14 0)
(3.60606 4.6308e-14 0)
(3.60606 9.51064e-14 0)
(3.60606 3.34791e-14 0)
(3.60606 6.08438e-14 0)
(3.60606 7.03188e-14 0)
(3.60606 -1.88099e-14 0)
(3.60606 -6.22274e-14 0)
(3.60606 -3.09753e-14 0)
(3.60606 -2.91084e-14 0)
(3.60606 -5.71965e-14 0)
(3.60606 -3.92734e-14 0)
(3.60606 8.97388e-14 0)
(3.60606 1.50641e-13 0)
(3.60606 -2.4811e-14 0)
(3.60606 1.83532e-14 0)
(3.60606 7.3146e-14 0)
(3.60606 4.69381e-14 0)
(3.60606 1.43458e-14 0)
(3.60606 -6.34776e-15 0)
(3.60606 -1.95534e-14 0)
(3.60606 -9.41329e-14 0)
(3.60606 -2.1218e-13 0)
(3.60606 -1.65855e-13 0)
(3.60606 -8.93921e-14 0)
(3.60606 -1.06785e-14 0)
(3.60606 -1.46959e-14 0)
(3.60606 -9.73968e-14 0)
(3.60606 -8.64649e-14 0)
(3.60606 -3.32124e-14 0)
(3.60606 -4.11504e-14 0)
(3.60606 -5.55429e-14 0)
(3.60606 -1.11136e-13 0)
(3.60606 -1.41424e-13 0)
(3.60606 -9.54298e-14 0)
(3.60606 9.08123e-14 0)
(3.60606 1.5414e-13 0)
(3.60606 2.31787e-13 0)
(3.60606 2.63262e-13 0)
(3.60606 1.07809e-13 0)
(3.60606 3.52828e-14 0)
(3.60606 3.38592e-14 0)
(3.60606 1.93133e-14 0)
(3.60606 -7.1569e-14 0)
(3.60606 -1.03491e-13 0)
(3.60606 -9.44796e-14 0)
(3.60606 -3.42459e-14 0)
(3.60606 9.00922e-14 0)
(3.60606 6.09939e-14 0)
(3.60606 -1.89666e-14 0)
(3.60606 -7.80835e-14 0)
(3.60606 -5.55529e-14 0)
(3.60606 -9.96505e-15 0)
(3.60606 7.15092e-15 0)
(3.60606 1.01418e-14 0)
(3.60606 2.64112e-14 0)
(3.60606 1.10986e-14 0)
(3.60606 -5.64764e-15 0)
(3.60606 4.41743e-15 0)
(3.60606 4.49711e-14 0)
(3.60606 1.07152e-14 0)
(3.60606 -2.94751e-14 0)
(3.60606 -8.63482e-14 0)
(3.60606 -1.24755e-13 0)
(3.60606 -1.24668e-13 0)
(3.60606 -8.70317e-14 0)
(3.60606 -1.05575e-13 0)
(3.60606 -1.67532e-13 0)
(3.60606 -1.81518e-13 0)
(3.60606 -1.30269e-13 0)
(3.60606 -8.92554e-14 0)
(3.60606 -2.29506e-14 0)
(3.60606 -7.56064e-14 0)
(3.60606 -6.7665e-14 0)
(3.60606 -7.00021e-14 0)
(3.60606 1.29022e-14 0)
(3.60606 9.0909e-14 0)
(3.60606 6.51012e-14 0)
(3.60606 2.85516e-14 0)
(3.60606 9.92605e-14 0)
(3.60606 1.27959e-13 0)
(3.60606 4.64147e-14 0)
(3.60606 4.13571e-14 0)
(3.60606 5.9707e-14 0)
(3.60606 4.74715e-14 0)
(3.60606 1.84999e-14 0)
(3.60606 -1.29956e-14 0)
(3.60606 -3.71197e-14 0)
(3.60606 -1.59994e-14 0)
(3.60606 -2.60912e-14 0)
(3.60606 -7.46062e-14 0)
(3.60606 -3.90701e-14 0)
(3.60606 -5.67165e-14 0)
(3.60606 -2.7674e-14 0)
(3.60606 4.29307e-14 0)
(3.60606 2.86316e-14 0)
(3.60606 -4.85884e-14 0)
(3.60606 -7.5443e-14 0)
(3.60606 -2.66913e-14 0)
(3.60606 -1.41358e-15 0)
(3.60606 -3.76732e-15 0)
(3.60606 2.66746e-14 0)
(3.60606 6.69082e-14 0)
(3.60606 -4.71315e-14 0)
(3.60606 -1.05305e-13 0)
(3.60606 -1.44628e-13 0)
(3.60606 -2.17358e-13 0)
(3.60606 -2.06626e-13 0)
(3.60606 -1.99288e-13 0)
(3.60606 -1.48109e-13 0)
(3.60606 -7.47196e-14 0)
(3.60606 -1.01798e-13 0)
(3.60606 -1.31959e-13 0)
(3.60606 -1.27412e-13 0)
(3.60606 -6.87152e-14 0)
(3.60606 -1.01287e-13 0)
(3.60606 -6.79217e-14 0)
(3.60606 -6.94687e-14 0)
(3.60606 -9.69534e-14 0)
(3.60606 -9.61299e-14 0)
(3.60606 -1.30623e-14 0)
(3.60606 4.03103e-14 0)
(3.60606 1.7653e-14 0)
(3.60606 5.32425e-15 0)
(3.60606 -6.56013e-14 0)
(3.60606 -1.5283e-13 0)
(3.60606 -7.32326e-14 0)
(3.60606 -2.38241e-14 0)
(3.60606 1.95734e-14 0)
(3.60606 -3.0772e-15 0)
(3.60606 1.49292e-14 0)
(3.60606 -1.61395e-14 0)
(3.60606 1.62895e-14 0)
(3.60606 9.54786e-14 0)
(3.60606 -1.67362e-15 0)
(3.60606 -1.89233e-14 0)
(3.60606 -5.55129e-14 0)
(3.60606 -8.96055e-14 0)
(3.60606 -4.29274e-14 0)
(3.60606 -1.13953e-14 0)
(3.60606 5.55529e-14 0)
(3.60606 4.02303e-14 0)
(3.60606 3.25856e-14 0)
(3.60606 3.61162e-14 0)
(3.60606 1.08285e-14 0)
(3.60606 -3.20822e-14 0)
(3.60606 -7.84069e-14 0)
(3.60606 -9.37462e-14 0)
(3.60606 -1.07685e-13 0)
(3.60606 -9.97939e-14 0)
(3.60606 -1.02971e-13 0)
(3.60606 -1.11329e-13 0)
(3.60606 -7.42295e-14 0)
(3.60606 -5.77633e-14 0)
(3.60606 -1.44692e-15 0)
(3.60606 3.847e-14 0)
(3.60606 6.50312e-14 0)
(3.60606 5.29691e-14 0)
(3.60606 1.64362e-15 0)
(3.60606 -1.39941e-13 0)
(3.60606 -1.58661e-13 0)
(3.60606 -3.14254e-14 0)
(3.60606 -1.5176e-14 0)
(3.60606 3.07386e-15 0)
(3.60606 -9.4333e-14 0)
(3.60606 -1.51079e-13 0)
(3.60606 -1.00134e-13 0)
(3.60606 -8.43379e-14 0)
(3.60606 -8.61749e-14 0)
(3.60606 -8.6985e-14 0)
(3.60606 -9.21426e-14 0)
(3.60606 -2.6738e-14 0)
(3.60606 4.79783e-14 0)
(3.60606 1.56937e-13 0)
(3.60606 -3.65763e-14 0)
(3.60606 -5.9837e-14 0)
(3.60606 -2.80648e-14 0)
(3.60606 2.55111e-14 0)
(3.60606 6.21207e-14 0)
(3.60606 5.19056e-14 0)
(3.60606 -1.88099e-14 0)
(3.60606 -2.57711e-14 0)
(3.60606 2.28706e-14 0)
(3.60606 4.11971e-14 0)
(3.60606 2.65112e-14 0)
(3.60606 3.71998e-14 0)
(3.60606 2.58978e-14 0)
(3.60606 -6.21374e-14 0)
(3.60606 -7.88903e-14 0)
(3.60606 -1.27142e-13 0)
(3.60606 -1.70106e-13 0)
(3.60606 -1.21974e-13 0)
(3.60606 -6.51746e-14 0)
(3.60606 -4.4341e-14 0)
(3.60606 -3.0982e-14 0)
(3.60606 4.40409e-14 0)
(3.60606 7.71733e-14 0)
(3.60606 8.11307e-14 0)
(3.60606 6.12873e-14 0)
(3.60606 5.51329e-14 0)
(3.60606 -7.96137e-15 0)
(3.60606 -2.93384e-14 0)
(3.60606 -1.40791e-14 0)
(3.60606 1.33956e-14 0)
(3.60606 -1.78364e-14 0)
(3.60606 2.24039e-15 0)
(3.60606 -8.59482e-15 0)
(3.60606 -3.60062e-16 0)
(3.60606 -5.32992e-14 0)
(3.60606 -8.36378e-14 0)
(3.60606 -1.19934e-13 0)
(3.60606 -6.26008e-14 0)
(3.60606 6.90553e-14 0)
(3.60606 1.32344e-13 0)
(3.60606 8.17141e-15 0)
(3.60606 8.52481e-15 0)
(3.60606 -1.30456e-14 0)
(3.60606 5.17956e-14 0)
(3.60606 6.53113e-14 0)
(3.60606 8.32477e-15 0)
(3.60606 -1.07685e-14 0)
(3.60606 2.82215e-14 0)
(3.60606 4.6378e-14 0)
(3.60606 2.11503e-14 0)
(3.60606 -1.67329e-14 0)
(3.60606 -3.09687e-14 0)
(3.60606 1.61428e-14 0)
(3.60606 3.04919e-14 0)
(3.60606 -1.62395e-14 0)
(3.60606 -7.72167e-14 0)
(3.60606 -1.03848e-13 0)
(3.60606 -7.83902e-14 0)
(3.60606 -6.12873e-14 0)
(3.60606 -1.35963e-13 0)
(3.60606 -1.32546e-13 0)
(3.60606 -1.30863e-13 0)
(3.60606 2.15104e-14 0)
(3.60606 1.12509e-13 0)
(3.60606 1.44682e-13 0)
(3.60606 1.95754e-13 0)
(3.60606 9.58532e-14 0)
(3.60606 4.4611e-14 0)
(3.60606 5.93002e-14 0)
(3.60606 5.18089e-15 0)
(3.60606 2.41375e-14 0)
(3.60606 5.53362e-14 0)
(3.60606 1.59594e-14 0)
(3.60606 -4.15738e-14 0)
(3.60606 -3.68697e-14 0)
(3.60606 2.78615e-14 0)
(3.60606 7.714e-14 0)
(3.60606 3.38592e-14 0)
(3.60606 3.43026e-14 0)
(3.60606 1.08596e-14 0)
(3.60606 3.80132e-14 0)
(3.60606 6.06105e-14 0)
(3.60606 2.69847e-14 0)
(3.60606 1.45892e-14 0)
(3.60606 3.60029e-14 0)
(3.60606 3.82366e-14 0)
(3.60606 4.45444e-14 0)
(3.60606 1.49026e-14 0)
(3.60606 -1.66795e-14 0)
(3.60606 -2.01968e-14 0)
(3.60606 -3.54995e-14 0)
(3.60606 -2.68613e-14 0)
(3.60606 -1.42691e-15 0)
(3.60606 -5.03854e-14 0)
(3.60606 -9.32594e-14 0)
(3.60606 -1.48342e-13 0)
(3.60606 -1.39787e-13 0)
(3.60606 -8.97322e-14 0)
(3.60606 -6.57314e-14 0)
(3.60606 -3.62063e-14 0)
(3.60606 -8.04539e-14 0)
(3.60606 -7.23625e-14 0)
(3.60606 2.24372e-14 0)
(3.60606 4.70481e-14 0)
(3.60606 7.1289e-14 0)
(3.60606 4.61313e-14 0)
(3.60606 8.83486e-14 0)
(3.60606 1.17517e-13 0)
(3.60606 1.08742e-13 0)
(3.60606 2.6878e-14 0)
(3.60606 -3.98469e-14 0)
(3.60606 -9.41063e-14 0)
(3.60606 -8.37611e-14 0)
(3.60606 -7.45495e-14 0)
(3.60606 -5.32292e-14 0)
(3.60606 -5.43661e-14 0)
(3.60606 -3.87967e-14 0)
(3.60606 -2.65446e-14 0)
(3.60606 -4.91085e-14 0)
(3.60606 -1.01288e-13 0)
(3.60606 1.12786e-14 0)
(3.60606 1.917e-14 0)
(3.60606 2.83682e-14 0)
(3.60606 9.47497e-15 0)
(3.60606 3.17055e-14 0)
(3.60606 3.77565e-14 0)
(3.60606 1.99334e-14 0)
(3.60606 9.49164e-15 0)
(3.60606 1.03751e-14 0)
(3.60606 8.18141e-15 0)
(3.60606 -6.22441e-15 0)
(3.60606 -1.41724e-14 0)
(3.60606 -5.18756e-15 0)
(3.60606 1.18887e-14 0)
(3.60606 1.1812e-14 0)
(3.60606 -3.93501e-14 0)
(3.60606 -1.06855e-13 0)
(3.60606 -1.10816e-13 0)
(3.60606 -1.07749e-13 0)
(3.60606 -6.45045e-14 0)
(3.60606 -6.25508e-14 0)
(3.60606 -6.89119e-14 0)
(3.60606 -9.95672e-14 0)
(3.60606 7.17124e-15 0)
(3.60606 1.22988e-14 0)
(3.60606 -1.78264e-14 0)
(3.60606 -2.65513e-14 0)
(3.60606 1.22121e-14 0)
(3.60606 -4.00302e-14 0)
(3.60606 -4.02103e-14 0)
(3.60606 -3.6793e-14 0)
(3.60606 6.1644e-15 0)
(3.60606 2.19971e-14 0)
(3.60606 9.10491e-15 0)
(3.60606 -7.99605e-14 0)
(3.60606 -1.15577e-13 0)
(3.60606 -1.65765e-13 0)
(3.60606 -1.5491e-13 0)
(3.60606 -1.46655e-13 0)
(3.60606 -1.45345e-13 0)
(3.60606 -5.72099e-15 0)
(3.60606 2.79015e-14 0)
(3.60606 3.92301e-14 0)
(3.60606 1.83865e-14 0)
(3.60606 -1.907e-14 0)
(3.60606 -8.91487e-15 0)
(3.60606 2.1057e-14 0)
(3.60606 4.72482e-14 0)
(3.60606 4.4181e-14 0)
(3.60606 3.47727e-14 0)
(3.60606 -2.57711e-15 0)
(3.60606 -5.2389e-14 0)
(3.60606 -6.53946e-14 0)
(3.60606 1.38391e-14 0)
(3.60606 3.55761e-14 0)
(3.60606 3.62363e-14 0)
(3.60606 -5.56363e-14 0)
(3.60606 -3.97769e-14 0)
(3.60606 -2.08269e-14 0)
(3.60606 -6.05438e-15 0)
(3.60606 5.2179e-14 0)
(3.60606 1.73697e-15 0)
(3.60606 -8.64383e-14 0)
(3.60606 -6.06305e-14 0)
(3.60606 -9.86504e-15 0)
(3.60606 3.98235e-14 0)
(3.60606 1.85832e-14 0)
(3.60606 -1.21994e-13 0)
(3.60606 -1.25645e-13 0)
(3.60606 -9.96505e-14 0)
(3.60606 -6.65282e-14 0)
(3.60606 2.04402e-14 0)
(3.60606 2.60978e-14 0)
(3.60606 4.86484e-14 0)
(3.60606 -1.47892e-14 0)
(3.60606 -5.33092e-14 0)
(3.60606 -1.22448e-13 0)
(3.60606 -1.48566e-13 0)
(3.60606 -1.36934e-13 0)
(3.60606 -1.43825e-13 0)
(3.60606 2.75381e-15 0)
(3.60606 2.05169e-14 0)
(3.60606 5.20757e-14 0)
(3.60606 7.17357e-14 0)
(3.60606 2.27373e-14 0)
(3.60606 2.24372e-15 0)
(3.60606 -3.96769e-14 0)
(3.60606 -2.32207e-14 0)
(3.60606 1.33956e-14 0)
(3.60606 7.05188e-14 0)
(3.60606 -2.21105e-14 0)
(3.60606 -9.09657e-14 0)
(3.60606 -1.28125e-13 0)
(3.60606 -1.49806e-13 0)
(3.60606 -8.38378e-14 0)
(3.60606 -8.66516e-14 0)
(3.60606 -1.10596e-13 0)
(3.60606 -8.34477e-14 0)
(3.60606 -4.62513e-14 0)
(3.60606 -2.56011e-14 0)
(3.60606 -1.99301e-14 0)
(3.60606 -3.11254e-14 0)
(3.60606 -4.48711e-14 0)
(3.60606 -9.68467e-14 0)
(3.60606 -1.00197e-13 0)
(3.60606 -1.77031e-15 0)
(3.60606 1.28122e-14 0)