/*--------------------------------*- C++ -*----------------------------------*\
| =========                 |                                                 |
| \\      /  F ield         | OpenFOAM: The Open Source CFD Toolbox           |
|  \\    /   O peration     | Version:  2206                                  |
|   \\  /    A nd           | Website:  www.openfoam.com                      |
|    \\/     M anipulation  |                                                 |
\*---------------------------------------------------------------------------*/
FoamFile
{
    version     2.0;
    format      ascii;
    arch        "LSB;label=32;scalar=64";
    class       volVectorField;
    location    "0.18";
    object      U;
}
// * * * * * * * * * * * * * * * * * * * * * * * * * * * * * * * * * * * * * //

dimensions      [0 1 -1 0 0 0 0];

internalField   nonuniform List<vector> 
4800
(
(3.92929 1.19887e-14 0)
(3.92929 1.38524e-14 0)
(3.92929 1.45825e-14 0)
(3.92929 1.83365e-16 0)
(3.92929 -3.80966e-14 0)
(3.92929 -3.80899e-14 0)
(3.92929 7.07456e-15 0)
(3.92929 3.24656e-14 0)
(3.92929 6.09772e-15 0)
(3.92929 -5.60764e-15 0)
(3.92929 1.73897e-14 0)
(3.92929 1.85165e-14 0)
(3.92929 1.33923e-14 0)
(3.92929 2.79048e-14 0)
(3.92929 -3.75598e-14 0)
(3.92929 -1.10736e-13 0)
(3.92929 -1.36784e-13 0)
(3.92929 -1.21698e-13 0)
(3.92929 -1.23485e-13 0)
(3.92929 -1.16857e-13 0)
(3.92929 -6.40711e-14 0)
(3.92929 2.75714e-15 0)
(3.92929 5.65598e-14 0)
(3.92929 7.61565e-14 0)
(3.92929 3.44693e-14 0)
(3.92929 -3.21389e-15 0)
(3.92929 7.43462e-16 0)
(3.92929 1.02784e-14 0)
(3.92929 2.35507e-14 0)
(3.92929 3.35791e-14 0)
(3.92929 8.65516e-14 0)
(3.92929 1.7422e-13 0)
(3.92929 2.6807e-13 0)
(3.92929 2.91884e-13 0)
(3.92929 2.5086e-13 0)
(3.92929 5.13655e-14 0)
(3.92929 2.2964e-14 0)
(3.92929 1.54527e-14 0)
(3.92929 9.39529e-14 0)
(3.92929 6.9702e-14 0)
(3.92929 -1.31223e-14 0)
(3.92929 1.86799e-14 0)
(3.92929 2.15571e-14 0)
(3.92929 -1.07352e-15 0)
(3.92929 -5.50062e-14 0)
(3.92929 -8.5078e-14 0)
(3.92929 -7.9247e-15 0)
(3.92929 3.93201e-14 0)
(3.92929 5.28625e-14 0)
(3.92929 3.84933e-14 0)
(3.92929 4.71481e-14 0)
(3.92929 3.51227e-14 0)
(3.92929 1.55193e-14 0)
(3.92929 -6.25175e-14 0)
(3.92929 -1.46432e-13 0)
(3.92929 -2.85576e-13 0)
(3.92929 -3.19582e-13 0)
(3.92929 -3.26363e-13 0)
(3.92929 -2.09056e-13 0)
(3.92929 -1.25185e-13 0)
(3.92929 -8.15641e-14 0)
(3.92929 -1.63061e-14 0)
(3.92929 -7.50463e-15 0)
(3.92929 1.47826e-14 0)
(3.92929 -4.40243e-14 0)
(3.92929 -8.47813e-14 0)
(3.92929 -1.56787e-13 0)
(3.92929 -6.33943e-14 0)
(3.92929 -2.24972e-14 0)
(3.92929 -5.48861e-14 0)
(3.92929 -5.82101e-15 0)
(3.92929 1.9281e-13 0)
(3.92929 3.12707e-13 0)
(3.92929 3.01499e-13 0)
(3.92929 1.58611e-13 0)
(3.92929 6.54446e-14 0)
(3.92929 4.4291e-14 0)
(3.92929 6.30576e-14 0)
(3.92929 1.81841e-13 0)
(3.92929 8.58717e-14 0)
(3.92929 -2.30173e-14 0)
(3.92929 -1.5266e-14 0)
(3.92929 -1.06552e-14 0)
(3.92929 2.12403e-14 0)
(3.92929 3.43626e-14 0)
(3.92929 3.13254e-14 0)
(3.92929 2.68813e-14 0)
(3.92929 4.19039e-14 0)
(3.92929 6.47212e-14 0)
(3.92929 1.01671e-13 0)
(3.92929 1.42991e-14 0)
(3.92929 -1.49292e-14 0)
(3.92929 -6.27008e-14 0)
(3.92929 -1.04948e-13 0)
(3.92929 -1.95414e-13 0)
(3.92929 -2.77885e-13 0)
(3.92929 -2.63676e-13 0)
(3.92929 -1.64388e-13 0)
(3.92929 -8.88153e-15 0)
(3.92929 1.28566e-13 0)
(3.92929 1.47135e-13 0)
(3.92929 1.03445e-13 0)
(3.92929 2.44309e-14 0)
(3.92929 -3.94701e-14 0)
(3.92929 3.03119e-14 0)
(3.92929 -1.18554e-14 0)
(3.92929 -2.20705e-15 0)
(3.92929 2.96651e-14 0)
(3.92929 5.14956e-14 0)
(3.92929 9.29127e-14 0)
(3.92929 8.86953e-14 0)
(3.92929 8.62849e-14 0)
(3.92929 1.01281e-13 0)
(3.92929 1.11406e-13 0)
(3.92929 9.65467e-14 0)
(3.92929 9.18859e-14 0)
(3.92929 6.39977e-14 0)
(3.92929 1.52993e-14 0)
(3.92929 1.91866e-14 0)
(3.92929 4.27959e-14 0)
(3.92929 1.47092e-14 0)
(3.92929 8.97822e-15 0)
(3.92929 3.56728e-15 0)
(3.92929 1.23921e-14 0)
(3.92929 5.36426e-15 0)
(3.92929 3.32891e-14 0)
(3.92929 7.43462e-15 0)
(3.92929 -1.10352e-15 0)
(3.92929 1.92033e-14 0)
(3.92929 4.54445e-14 0)
(3.92929 4.23907e-14 0)
(3.92929 -6.14439e-15 0)
(3.92929 -7.01488e-14 0)
(3.92929 -7.9037e-14 0)
(3.92929 -1.18104e-13 0)
(3.92929 -1.55127e-13 0)
(3.92929 -1.20381e-13 0)
(3.92929 -3.01052e-14 0)
(3.92929 5.14422e-14 0)
(3.92929 6.40944e-14 0)
(3.92929 5.71399e-14 0)
(3.92929 6.14106e-14 0)
(3.92929 3.96802e-14 0)
(3.92929 4.10471e-14 0)
(3.92929 9.2876e-14 0)
(3.92929 1.61598e-13 0)
(3.92929 1.61735e-13 0)
(3.92929 1.60354e-13 0)
(3.92929 1.1297e-13 0)
(3.92929 1.27079e-13 0)
(3.92929 1.33973e-13 0)
(3.92929 1.44955e-13 0)
(3.92929 1.41454e-13 0)
(3.92929 1.66865e-13 0)
(3.92929 1.64418e-13 0)
(3.92929 7.84435e-14 0)
(3.92929 1.05158e-13 0)
(3.92929 6.93486e-14 0)
(3.92929 4.72415e-14 0)
(3.92929 9.36465e-14 0)
(3.92929 2.83949e-14 0)
(3.92929 2.79682e-14 0)
(3.92929 5.24757e-15 0)
(3.92929 -4.43243e-14 0)
(3.92929 -4.0817e-14 0)
(3.92929 6.05438e-15 0)
(3.92929 -9.635e-15 0)
(3.92929 -2.98952e-14 0)
(3.92929 2.26206e-14 0)
(3.92929 5.75133e-14 0)
(3.92929 9.23293e-14 0)
(3.92929 9.00756e-14 0)
(3.92929 1.90633e-14 0)
(3.92929 -7.60131e-15 0)
(3.92929 -2.93717e-14 0)
(3.92929 -3.53061e-14 0)
(3.92929 2.79048e-15 0)
(3.92929 -2.84716e-15 0)
(3.92929 -4.79516e-14 0)
(3.92929 -7.80468e-14 0)
(3.92929 -8.4858e-14 0)
(3.92929 -1.00801e-13 0)
(3.92929 -1.26705e-13 0)
(3.92929 -1.21984e-13 0)
(3.92929 -1.46579e-13 0)
(3.92929 -6.25941e-14 0)
(3.92929 7.10323e-14 0)
(3.92929 9.51198e-14 0)
(3.92929 8.05906e-14 0)
(3.92929 4.21573e-14 0)
(3.92929 4.16805e-14 0)
(3.92929 1.44568e-13 0)
(3.92929 1.85029e-13 0)
(3.92929 1.51356e-13 0)
(3.92929 9.87771e-14 0)
(3.92929 6.20474e-14 0)
(3.92929 1.12783e-13 0)
(3.92929 1.08652e-13 0)
(3.92929 1.1337e-13 0)
(3.92929 1.07764e-13 0)
(3.92929 -2.26039e-15 0)
(3.92929 -4.20139e-14 0)
(3.92929 -1.82131e-14 0)
(3.92929 6.95453e-14 0)
(3.92929 1.09452e-13 0)
(3.92929 9.69501e-14 0)
(3.92929 2.18971e-14 0)
(3.92929 7.76801e-15 0)
(3.92929 2.64679e-14 0)
(3.92929 5.56629e-14 0)
(3.92929 4.2414e-14 0)
(3.92929 -5.6143e-15 0)
(3.92929 -4.90118e-14 0)
(3.92929 -5.60063e-14 0)
(3.92929 -2.09836e-14 0)
(3.92929 2.69313e-14 0)
(3.92929 4.77816e-14 0)
(3.92929 1.99101e-14 0)
(3.92929 1.37524e-14 0)
(3.92929 2.58778e-14 0)
(3.92929 -1.01051e-14 0)
(3.92929 -1.43515e-13 0)
(3.92929 -1.25008e-13 0)
(3.92929 -1.10076e-13 0)
(3.92929 -8.22175e-14 0)
(3.92929 -1.77597e-14 0)
(3.92929 8.54648e-14 0)
(3.92929 9.86137e-14 0)
(3.92929 7.1289e-14 0)
(3.92929 -3.49594e-14 0)
(3.92929 4.4671e-14 0)
(3.92929 9.77002e-14 0)
(3.92929 7.49763e-14 0)
(3.92929 -3.19255e-14 0)
(3.92929 -5.41093e-15 0)
(3.92929 2.70547e-14 0)
(3.92929 1.46759e-14 0)
(3.92929 5.66631e-14 0)
(3.92929 3.4736e-14 0)
(3.92929 5.55794e-14 0)
(3.92929 -1.65895e-14 0)
(3.92929 -2.73981e-14 0)
(3.92929 -2.69046e-14 0)
(3.92929 3.1102e-14 0)
(3.92929 6.28809e-14 0)
(3.92929 5.73599e-14 0)
(3.92929 -7.49463e-15 0)
(3.92929 -7.50796e-15 0)
(3.92929 -4.62413e-14 0)
(3.92929 -2.54011e-14 0)
(3.92929 3.20789e-14 0)
(3.92929 1.12719e-14 0)
(3.92929 5.56763e-15 0)
(3.92929 -4.26074e-15 0)
(3.92929 -1.73997e-14 0)
(3.92929 -3.98669e-14 0)
(3.92929 -6.07138e-14 0)
(3.92929 4.94385e-14 0)
(3.92929 7.98905e-14 0)
(3.92929 9.04123e-14 0)
(3.92929 6.57013e-14 0)
(3.92929 -5.63731e-14 0)
(3.92929 -1.01061e-13 0)
(3.92929 -1.21881e-13 0)
(3.92929 -8.18375e-14 0)
(3.92929 -1.35923e-14 0)
(3.92929 1.60894e-14 0)
(3.92929 6.9412e-15 0)
(3.92929 -3.80599e-14 0)
(3.92929 -5.98937e-14 0)
(3.92929 3.4876e-14 0)
(3.92929 3.06553e-14 0)
(3.92929 4.76449e-14 0)
(3.92929 3.38125e-14 0)
(3.92929 3.98736e-14 0)
(3.92929 5.32092e-14 0)
(3.92929 1.58661e-14 0)
(3.92929 -9.06823e-16 0)
(3.92929 -9.93905e-14 0)
(3.92929 -1.51997e-13 0)
(3.92929 -6.65448e-15 0)
(3.92929 -4.42743e-15 0)
(3.92929 -5.93536e-14 0)
(3.92929 -1.13676e-13 0)
(3.92929 -1.21408e-13 0)
(3.92929 -9.20826e-14 0)
(3.92929 -5.46561e-14 0)
(3.92929 -1.48159e-14 0)
(3.92929 -5.83501e-14 0)
(3.92929 -3.6743e-14 0)
(3.92929 6.29242e-14 0)
(3.92929 7.96771e-14 0)
(3.92929 5.31225e-14 0)
(3.92929 6.69749e-14 0)
(3.92929 7.78901e-14 0)
(3.92929 5.07921e-14 0)
(3.92929 -2.2964e-14 0)
(3.92929 -6.32209e-14 0)
(3.92929 -4.68614e-14 0)
(3.92929 -7.40128e-16 0)
(3.92929 7.65466e-15 0)
(3.92929 3.99602e-14 0)
(3.92929 9.40129e-14 0)
(3.92929 9.52164e-14 0)
(3.92929 3.15388e-15 0)
(3.92929 -1.33366e-13 0)
(3.92929 -1.5229e-13 0)
(3.92929 -1.65425e-13 0)
(3.92929 -1.48296e-13 0)
(3.92929 -7.01821e-14 0)
(3.92929 -1.01781e-13 0)
(3.92929 -1.20948e-13 0)
(3.92929 -9.44396e-14 0)
(3.92929 1.19757e-13 0)
(3.92929 1.57684e-13 0)
(3.92929 1.28689e-13 0)
(3.92929 1.10152e-13 0)
(3.92929 2.84082e-14 0)
(3.92929 -6.65148e-14 0)
(3.92929 -7.03312e-14 0)
(3.92929 -3.75798e-14 0)
(3.92929 -8.63482e-15 0)
(3.92929 2.97151e-14 0)
(3.92929 2.10703e-15 0)
(3.92929 -3.14321e-14 0)
(3.92929 -4.78683e-14 0)
(3.92929 6.26442e-15 0)
(3.92929 1.3669e-16 0)
(3.92929 -1.55227e-14 0)
(3.92929 -5.71599e-14 0)
(3.92929 -5.98203e-14 0)
(3.92929 -3.46993e-14 0)
(3.92929 -2.42409e-14 0)
(3.92929 -3.23923e-14 0)
(3.92929 -4.46977e-14 0)
(3.92929 -2.6998e-14 0)
(3.92929 -2.04869e-14 0)
(3.92929 -2.15971e-14 0)
(3.92929 -4.94052e-14 0)
(3.92929 -3.36491e-14 0)
(3.92929 -2.16804e-14 0)
(3.92929 -4.11071e-15 0)
(3.92929 6.45511e-14 0)
(3.92929 7.08556e-14 0)
(3.92929 1.1702e-14 0)
(3.92929 -4.67147e-14 0)
(3.92929 -1.26112e-13 0)
(3.92929 -2.43565e-13 0)
(3.92929 -2.42609e-13 0)
(3.92929 -1.88763e-13 0)
(3.92929 -1.62618e-13 0)
(3.92929 -1.60724e-13 0)
(3.92929 -1.48859e-13 0)
(3.92929 2.84816e-14 0)
(3.92929 9.65167e-14 0)
(3.92929 7.50163e-14 0)
(3.92929 3.01419e-14 0)
(3.92929 -1.51259e-14 0)
(3.92929 1.78031e-15 0)
(3.92929 2.05534e-14 0)
(3.92929 6.42111e-15 0)
(3.92929 4.17172e-14 0)
(3.92929 1.16947e-13 0)
(3.92929 1.28569e-13 0)
(3.92929 1.15783e-13 0)
(3.92929 5.47995e-14 0)
(3.92929 4.58246e-14 0)
(3.92929 -8.37478e-15 0)
(3.92929 -2.22238e-14 0)
(3.92929 -1.18044e-13 0)
(3.92929 -1.60324e-13 0)
(3.92929 -1.12036e-13 0)
(3.92929 -3.47527e-14 0)
(3.92929 -5.03087e-14 0)
(3.92929 -1.08949e-13 0)
(3.92929 -1.11513e-13 0)
(3.92929 -4.88284e-14 0)
(3.92929 -2.86049e-15 0)
(3.92929 -1.60928e-14 0)
(3.92929 -1.14857e-13 0)
(3.92929 -1.11026e-13 0)
(3.92929 -1.19124e-13 0)
(3.92929 -1.29592e-13 0)
(3.92929 -8.52647e-14 0)
(3.92929 -5.4236e-14 0)
(3.92929 3.38058e-15 0)
(3.92929 -7.64599e-14 0)
(3.92929 -1.56217e-13 0)
(3.92929 -1.39941e-13 0)
(3.92929 -9.4523e-14 0)
(3.92929 -3.62263e-14 0)
(3.92929 -1.99168e-14 0)
(3.92929 -4.15505e-14 0)
(3.92929 -6.78284e-14 0)
(3.92929 -6.5348e-14 0)
(3.92929 -4.63813e-14 0)
(3.92929 6.43778e-15 0)
(3.92929 1.58661e-14 0)
(3.92929 2.79248e-14 0)
(3.92929 4.71452e-14 0)
(3.92929 4.14738e-14 0)
(3.92929 3.20889e-14 0)
(3.92929 4.27741e-15 0)
(3.92929 3.13888e-14 0)
(3.92929 4.29841e-14 0)
(3.92929 4.19039e-14 0)
(3.92929 2.08036e-14 0)
(3.92929 -8.79485e-15 0)
(3.92929 -3.55961e-14 0)
(3.92929 -2.43609e-14 0)
(3.92929 3.47593e-14 0)
(3.92929 7.3216e-14 0)
(3.92929 5.54996e-14 0)
(3.92929 2.03735e-14 0)
(3.92929 -3.95468e-14 0)
(3.92929 -2.84582e-14 0)
(3.92929 -3.36725e-15 0)
(3.92929 4.74182e-14 0)
(3.92929 1.03651e-14 0)
(3.92929 -2.97518e-14 0)
(3.92929 -4.17039e-14 0)
(3.92929 -4.9962e-14 0)
(3.92929 -7.94437e-14 0)
(3.92929 -7.42161e-14 0)
(3.92929 -4.98186e-14 0)
(3.92929 -3.98902e-14 0)
(3.92929 -8.16774e-14 0)
(3.92929 -3.72898e-14 0)
(3.92929 -1.62995e-14 0)
(3.92929 1.05718e-14 0)
(3.92929 5.09155e-14 0)
(3.92929 -1.83898e-14 0)
(3.92929 -6.21407e-14 0)
(3.92929 -5.69132e-14 0)
(3.92929 -9.24426e-14 0)
(3.92929 -8.38078e-14 0)
(3.92929 2.24872e-14 0)
(3.92929 -2.39041e-15 0)
(3.92929 -4.27407e-15 0)
(3.92929 -1.74305e-14 0)
(3.92929 5.57763e-15 0)
(3.92929 -3.12287e-14 0)
(3.92929 -8.47513e-14 0)
(3.92929 -9.33261e-14 0)
(3.92929 -6.1924e-14 0)
(3.92929 -1.21621e-14 0)
(3.92929 -4.11738e-15 0)
(3.92929 -1.01351e-15 0)
(3.92929 6.49012e-14 0)
(3.92929 1.12076e-13 0)
(3.92929 9.22959e-14 0)
(3.92929 5.67065e-14 0)
(3.92929 1.27422e-14 0)
(3.92929 1.69629e-14 0)
(3.92929 -4.4591e-14 0)
(3.92929 -5.09688e-14 0)
(3.92929 1.94034e-15 0)
(3.92929 6.26708e-14 0)
(3.92929 8.8652e-14 0)
(3.92929 4.12138e-14 0)
(3.92929 2.40542e-14 0)
(3.92929 3.69997e-14 0)
(3.92929 1.60228e-14 0)
(3.92929 -4.79049e-14 0)
(3.92929 -6.56447e-14 0)
(3.92929 -4.18806e-14 0)
(3.92929 6.27642e-14 0)
(3.92929 9.57132e-14 0)
(3.92929 8.80352e-14 0)
(3.92929 7.20891e-14 0)
(3.92929 2.72114e-14 0)
(3.92929 -1.43818e-13 0)
(3.92929 -1.87569e-13 0)
(3.92929 -1.50636e-13 0)
(3.92929 -1.1439e-13 0)
(3.92929 -2.64979e-14 0)
(3.92929 2.77881e-14 0)
(3.92929 1.11736e-13 0)
(3.92929 1.85432e-13 0)
(3.92929 1.88577e-13 0)
(3.92929 -1.32523e-14 0)
(3.92929 -2.79782e-14 0)
(3.92929 -1.63728e-14 0)
(3.92929 -3.06953e-14 0)
(3.92929 -4.47877e-14 0)
(3.92929 -7.42962e-14 0)
(3.92929 -2.96218e-14 0)
(3.92929 1.85299e-14 0)
(3.92929 9.22293e-14 0)
(3.92929 1.17424e-13 0)
(3.92929 1.1799e-13 0)
(3.92929 9.60232e-14 0)
(3.92929 7.18491e-14 0)
(3.92929 8.93621e-14 0)
(3.92929 4.39243e-14 0)
(3.92929 -5.99103e-15 0)
(3.92929 8.88553e-14 0)
(3.92929 9.78769e-14 0)
(3.92929 1.07199e-13 0)
(3.92929 1.23298e-13 0)
(3.92929 8.8752e-14 0)
(3.92929 1.03298e-13 0)
(3.92929 7.99371e-14 0)
(3.92929 5.0142e-14 0)
(3.92929 -6.40111e-15 0)
(3.92929 -1.47525e-14 0)
(3.92929 1.64702e-13 0)
(3.92929 1.93363e-13 0)
(3.92929 1.82595e-13 0)
(3.92929 1.61871e-13 0)
(3.92929 1.06632e-13 0)
(3.92929 4.23306e-14 0)
(3.92929 -7.3286e-14 0)
(3.92929 -1.42655e-13 0)
(3.92929 -9.36228e-14 0)
(3.92929 -1.52193e-14 0)
(3.92929 2.46743e-14 0)
(3.92929 8.93154e-14 0)
(3.92929 1.42531e-13 0)
(3.92929 1.28598e-13 0)
(3.92929 6.62448e-15 0)
(3.92929 3.82966e-14 0)
(3.92929 6.39944e-14 0)
(3.92929 9.46763e-14 0)
(3.92929 8.13274e-14 0)
(3.92929 8.43279e-14 0)
(3.92929 6.69749e-14 0)
(3.92929 -7.76134e-15 0)
(3.92929 -2.22805e-14 0)
(3.92929 -2.49676e-14 0)
(3.92929 -2.61579e-14 0)
(3.92929 3.53594e-14 0)
(3.92929 7.10489e-14 0)
(3.92929 2.74981e-14 0)
(3.92929 -3.6473e-15 0)
(3.92929 3.71931e-14 0)
(3.92929 9.62099e-14 0)
(3.92929 1.1527e-13 0)
(3.92929 9.22026e-14 0)
(3.92929 1.03134e-13 0)
(3.92929 8.1154e-14 0)
(3.92929 4.99986e-14 0)
(3.92929 5.74699e-14 0)
(3.92929 1.01788e-13 0)
(3.92929 1.08359e-13 0)
(3.92929 1.76974e-13 0)
(3.92929 2.50273e-13 0)
(3.92929 2.16367e-13 0)
(3.92929 1.37367e-13 0)
(3.92929 1.16807e-13 0)
(3.92929 1.41328e-13 0)
(3.92929 1.70056e-13 0)
(3.92929 1.1728e-13 0)
(3.92929 4.22306e-14 0)
(3.92929 -3.5006e-14 0)
(3.92929 -7.28826e-14 0)
(3.92929 -7.88336e-14 0)
(3.92929 -6.08805e-14 0)
(3.92929 -6.52613e-14 0)
(3.92929 -4.67393e-14 0)
(3.92929 3.20722e-15 0)
(3.92929 1.12019e-15 0)
(3.92929 2.03402e-14 0)
(3.92929 5.25091e-15 0)
(3.92929 3.52628e-14 0)
(3.92929 6.12606e-14 0)
(3.92929 2.09603e-14 0)
(3.92929 -8.42179e-14 0)
(3.92929 -9.82736e-14 0)
(3.92929 -1.01728e-13 0)
(3.92929 -1.64445e-13 0)
(3.92929 -2.40688e-13 0)
(3.92929 -2.45892e-13 0)
(3.92929 -2.39238e-13 0)
(3.92929 -8.51114e-14 0)
(3.92929 1.3581e-13 0)
(3.92929 1.58917e-13 0)
(3.92929 1.63132e-13 0)
(3.92929 1.39267e-13 0)
(3.92929 -4.73415e-16 0)
(3.92929 -1.03244e-13 0)
(3.92929 -1.40311e-13 0)
(3.92929 -6.00037e-14 0)
(3.92929 -4.18639e-14 0)
(3.92929 -2.28806e-14 0)
(3.92929 4.46244e-14 0)
(3.92929 1.60188e-13 0)
(3.92929 2.12043e-13 0)
(3.92929 1.9107e-13 0)
(3.92929 7.84902e-14 0)
(3.92929 1.97634e-14 0)
(3.92929 4.50978e-14 0)
(3.92929 8.53814e-14 0)
(3.92929 8.8972e-14 0)
(3.92929 9.56032e-14 0)
(3.92929 1.21304e-13 0)
(3.92929 4.4601e-14 0)
(3.92929 -2.66713e-17 0)
(3.92929 -5.86868e-14 0)
(3.92929 -5.88775e-14 0)
(3.92929 3.04053e-15 0)
(3.92929 2.52377e-15 0)
(3.92929 -2.62712e-15 0)
(3.92929 -1.97301e-14 0)
(3.92929 -6.98121e-14 0)
(3.92929 -9.22626e-14 0)
(3.92929 -5.85168e-14 0)
(3.92929 6.93453e-15 0)
(3.92929 -2.57278e-14 0)
(3.92929 -5.15356e-14 0)
(3.92929 -1.78081e-13 0)
(3.92929 -2.99632e-13 0)
(3.92929 -2.86893e-13 0)
(3.92929 -1.98124e-13 0)
(3.92929 8.86486e-15 0)
(3.92929 1.65889e-13 0)
(3.92929 1.7568e-13 0)
(3.92929 1.60901e-13 0)
(3.92929 1.43111e-13 0)
(3.92929 1.60244e-13 0)
(3.92929 1.31073e-13 0)
(3.92929 9.38295e-14 0)
(3.92929 7.83602e-14 0)
(3.92929 6.09772e-15 0)
(3.92929 -2.75614e-14 0)
(3.92929 2.61612e-14 0)
(3.92929 6.46945e-14 0)
(3.92929 8.44346e-14 0)
(3.92929 6.88652e-14 0)
(3.92929 9.97372e-14 0)
(3.92929 9.19692e-14 0)
(3.92929 1.13086e-13 0)
(3.92929 1.81025e-13 0)
(3.92929 2.02018e-13 0)
(3.92929 2.39995e-13 0)
(3.92929 2.38204e-13 0)
(3.92929 2.45489e-13 0)
(3.92929 1.79024e-13 0)
(3.92929 1.51243e-13 0)
(3.92929 1.33847e-13 0)
(3.92929 -2.60378e-15 0)
(3.92929 9.655e-15 0)
(3.92929 -6.79451e-15 0)
(3.92929 -1.26722e-14 0)
(3.92929 -5.05321e-14 0)
(3.92929 -7.83702e-14 0)
(3.92929 -4.69581e-14 0)
(3.92929 -1.34223e-14 0)
(3.92929 8.72151e-15 0)
(3.92929 -2.61412e-14 0)
(3.92929 -5.85368e-14 0)
(3.92929 -8.33577e-14 0)
(3.92929 -6.08472e-14 0)
(3.92929 -3.39925e-14 0)
(3.92929 -8.86987e-14 0)
(3.92929 -1.10452e-14 0)
(3.92929 2.27106e-14 0)
(3.92929 3.876e-14 0)
(3.92929 1.03951e-14 0)
(3.92929 4.9952e-14 0)
(3.92929 1.43388e-13 0)
(3.92929 1.60608e-13 0)
(3.92929 1.69773e-13 0)
(3.92929 1.38804e-13 0)
(3.92929 1.47085e-13 0)
(3.92929 7.78201e-14 0)
(3.92929 6.5598e-14 0)
(3.92929 4.62613e-14 0)
(3.92929 1.51456e-13 0)
(3.92929 2.18188e-13 0)
(3.92929 2.60362e-13 0)
(3.92929 1.82462e-13 0)
(3.92929 1.53223e-13 0)
(3.92929 1.61815e-13 0)
(3.92929 1.7396e-13 0)
(3.92929 1.88696e-13 0)
(3.92929 1.66582e-13 0)
(3.92929 1.80231e-13 0)
(3.92929 2.15721e-13 0)
(3.92929 2.03851e-13 0)
(3.92929 -3.05119e-14 0)
(3.92929 -7.49796e-14 0)
(3.92929 -1.04341e-13 0)
(3.92929 -1.08242e-13 0)
(3.92929 -8.49813e-14 0)
(3.92929 -7.23425e-14 0)
(3.92929 -1.00794e-13 0)
(3.92929 -1.12799e-13 0)
(3.92929 -9.18359e-14 0)
(3.92929 -9.01589e-14 0)
(3.92929 -4.53445e-14 0)
(3.92929 -1.43425e-14 0)
(3.92929 -1.07552e-14 0)
(3.92929 -1.87232e-14 0)
(3.92929 -2.67546e-14 0)
(3.92929 -2.60045e-14 0)
(3.92929 -3.40025e-14 0)
(3.92929 -1.21498e-13 0)
(3.92929 -9.633e-14 0)
(3.92929 -9.00489e-15 0)
(3.92929 -8.51814e-15 0)
(3.92929 -2.85616e-14 0)
(3.92929 -1.42691e-15 0)
(3.92929 9.49031e-14 0)
(3.92929 1.62105e-13 0)
(3.92929 1.06628e-13 0)
(3.92929 2.3084e-14 0)
(3.92929 1.60928e-14 0)
(3.92929 1.05978e-13 0)
(3.92929 1.39787e-13 0)
(3.92929 1.7462e-13 0)
(3.92929 1.77427e-13 0)
(3.92929 1.70313e-13 0)
(3.92929 1.42908e-13 0)
(3.92929 1.44492e-13 0)
(3.92929 2.2995e-13 0)
(3.92929 2.60565e-13 0)
(3.92929 2.86023e-13 0)
(3.92929 3.40149e-13 0)
(3.92929 2.74065e-13 0)
(3.92929 1.46592e-14 0)
(3.92929 2.90183e-14 0)
(3.92929 2.55711e-14 0)
(3.92929 -2.2944e-14 0)
(3.92929 -1.53693e-14 0)
(3.92929 -1.78264e-14 0)
(3.92929 -3.47327e-14 0)
(3.92929 -3.83233e-14 0)
(3.92929 -1.31556e-14 0)
(3.92929 1.65229e-14 0)
(3.92929 4.38576e-14 0)
(3.92929 7.65532e-14 0)
(3.92929 6.23841e-14 0)
(3.92929 -3.62696e-14 0)
(3.92929 -2.74781e-14 0)
(3.92929 4.05037e-14 0)
(3.92929 4.72215e-14 0)
(3.92929 -2.58611e-14 0)
(3.92929 -3.68964e-14 0)
(3.92929 1.12986e-14 0)
(3.92929 7.77801e-15 0)
(3.92929 1.14086e-14 0)
(3.92929 -5.56763e-15 0)
(3.92929 6.49779e-15 0)
(3.92929 7.69466e-15 0)
(3.92929 -2.72114e-14 0)
(3.92929 -6.04904e-14 0)
(3.92929 1.35257e-14 0)
(3.92929 6.06071e-14 0)
(3.92929 1.70659e-13 0)
(3.92929 1.67402e-13 0)
(3.92929 2.06649e-13 0)
(3.92929 2.35014e-13 0)
(3.92929 1.89413e-13 0)
(3.92929 1.75527e-13 0)
(3.92929 1.83808e-13 0)
(3.92929 2.23079e-13 0)
(3.92929 2.77155e-13 0)
(3.92929 2.13437e-13 0)
(3.92929 1.52152e-13 0)
(3.92929 7.38794e-15 0)
(3.92929 3.85633e-14 0)
(3.92929 1.60941e-13 0)
(3.92929 1.70106e-13 0)
(3.92929 1.3772e-13 0)
(3.92929 8.13907e-14 0)
(3.92929 5.769e-14 0)
(3.92929 1.00517e-14 0)
(3.92929 2.01935e-14 0)
(3.92929 6.53346e-14 0)
(3.92929 8.14007e-14 0)
(3.92929 4.77949e-14 0)
(3.92929 2.39975e-14 0)
(3.92929 -1.5696e-14 0)
(3.92929 -4.77816e-14 0)
(3.92929 -2.12403e-14 0)
(3.92929 -4.8005e-14 0)
(3.92929 -9.38229e-14 0)
(3.92929 -1.23195e-13 0)
(3.92929 -1.38187e-13 0)
(3.92929 -8.23642e-14 0)
(3.92929 6.78784e-15 0)
(3.92929 -1.19521e-14 0)
(3.92929 -4.82517e-14 0)
(3.92929 -3.18888e-14 0)
(3.92929 -5.37159e-14 0)
(3.92929 -9.68834e-14 0)
(3.92929 -1.01454e-13 0)
(3.92929 3.11187e-14 0)
(3.92929 1.06552e-13 0)
(3.92929 1.06038e-13 0)
(3.92929 1.41468e-13 0)
(3.92929 1.61561e-13 0)
(3.92929 1.40984e-13 0)
(3.92929 1.43415e-13 0)
(3.92929 1.37694e-13 0)
(3.92929 1.52483e-13 0)
(3.92929 1.93427e-13 0)
(3.92929 3.26523e-14 0)
(3.92929 1.17502e-14 0)
(3.92929 -1.36657e-14 0)
(3.92929 -5.06421e-15 0)
(3.92929 1.5396e-14 0)
(3.92929 5.28225e-14 0)
(3.92929 5.40827e-14 0)
(3.92929 6.06105e-14 0)
(3.92929 4.28474e-14 0)
(3.92929 -5.5943e-15 0)
(3.92929 -5.82001e-14 0)
(3.92929 -7.29059e-14 0)
(3.92929 -4.80783e-14 0)
(3.92929 -1.43125e-14 0)
(3.92929 1.48059e-14 0)
(3.92929 1.936e-14 0)
(3.92929 6.26575e-14 0)
(3.92929 1.99701e-15 0)
(3.92929 -1.20057e-13 0)
(3.92929 -6.97454e-14 0)
(3.92929 -6.77484e-14 0)
(3.92929 -4.69681e-14 0)
(3.92929 -5.62497e-14 0)
(3.92929 -1.25078e-13 0)
(3.92929 -1.37844e-13 0)
(3.92929 -1.22371e-13 0)
(3.92929 -3.80499e-14 0)
(3.92929 1.77364e-14 0)
(3.92929 1.96034e-15 0)
(3.92929 -2.57778e-14 0)
(3.92929 -1.14987e-14 0)
(3.92929 -5.56696e-14 0)
(3.92929 -5.67198e-14 0)
(3.92929 -9.2826e-14 0)
(3.92929 -3.42926e-14 0)
(3.92929 4.46144e-14 0)
(3.92929 6.82851e-14 0)
(3.92929 5.36826e-14 0)
(3.92929 2.1357e-14 0)
(3.92929 5.49428e-14 0)
(3.92929 1.43932e-13 0)
(3.92929 2.13565e-13 0)
(3.92929 -7.60798e-15 0)
(3.92929 -5.5943e-15 0)
(3.92929 -7.3396e-14 0)
(3.92929 -4.95619e-14 0)
(3.92929 -2.66279e-14 0)
(3.92929 4.39409e-15 0)
(3.92929 3.23656e-14 0)
(3.92929 3.15755e-14 0)
(3.92929 1.81331e-14 0)
(3.92929 -2.21905e-14 0)
(3.92929 -9.17492e-15 0)
(3.92929 -1.22288e-14 0)
(3.92929 2.84849e-14 0)
(3.92929 3.58729e-14 0)
(3.92929 3.16988e-14 0)
(3.92929 1.04451e-14 0)
(3.92929 -2.6798e-14 0)
(3.92929 -6.9572e-14 0)
(3.92929 -5.26591e-14 0)
(3.92929 -4.59813e-14 0)
(3.92929 -6.50812e-14 0)
(3.92929 -9.63966e-14 0)
(3.92929 -6.85352e-14 0)
(3.92929 -5.45294e-14 0)
(3.92929 -1.03141e-13 0)
(3.92929 -1.02581e-13 0)
(3.92929 -1.07515e-13 0)
(3.92929 -1.09352e-13 0)
(3.92929 -9.96039e-14 0)
(3.92929 -1.3706e-13 0)
(3.92929 -1.65902e-13 0)
(3.92929 -1.84365e-13 0)
(3.92929 -1.82665e-13 0)
(3.92929 -1.78931e-13 0)
(3.92929 -1.36324e-14 0)
(3.92929 3.44259e-14 0)
(3.92929 1.05085e-14 0)
(3.92929 3.40392e-15 0)
(3.92929 -8.8582e-15 0)
(3.92929 -2.35601e-14 0)
(3.92929 1.60328e-14 0)
(3.92929 7.86136e-15 0)
(3.92929 -1.19654e-14 0)
(3.92929 -6.9692e-14 0)
(3.92929 -6.24575e-14 0)
(3.92929 -4.33508e-14 0)
(3.92929 -2.85716e-15 0)
(3.92929 4.54212e-14 0)
(3.92929 4.16339e-14 0)
(3.92929 9.88471e-14 0)
(3.92929 8.55581e-14 0)
(3.92929 1.02061e-13 0)
(3.92929 1.08622e-13 0)
(3.92929 1.36114e-13 0)
(3.92929 1.17207e-13 0)
(3.92929 1.11446e-13 0)
(3.92929 8.91354e-14 0)
(3.92929 -1.09949e-13 0)
(3.92929 -1.39021e-13 0)
(3.92929 -1.35137e-13 0)
(3.92929 -1.13586e-13 0)
(3.92929 -5.31292e-14 0)
(3.92929 -2.89583e-14 0)
(3.92929 -2.32273e-14 0)
(3.92929 -7.28626e-14 0)
(3.92929 -1.27282e-13 0)
(3.92929 -1.47065e-13 0)
(3.92929 -1.39864e-13 0)
(3.92929 -1.59087e-13 0)
(3.92929 -1.70456e-13 0)
(3.92929 -1.72393e-13 0)
(3.92929 -1.70643e-13 0)
(3.92929 -1.82718e-13 0)
(3.92929 -1.68622e-13 0)
(3.92929 -1.23498e-13 0)
(3.92929 -4.07004e-14 0)
(3.92929 -7.18424e-14 0)
(3.92929 -1.59588e-13 0)
(3.92929 -1.63822e-13 0)
(3.92929 -1.12143e-13 0)
(3.92929 6.95787e-15 0)
(3.92929 -1.38924e-14 0)
(3.92929 -1.78831e-14 0)
(3.92929 -2.37141e-14 0)
(3.92929 -3.89134e-14 0)
(3.92929 -3.76965e-14 0)
(3.92929 -3.02452e-14 0)
(3.92929 1.61228e-14 0)
(3.92929 4.80283e-14 0)
(3.92929 8.92821e-14 0)
(3.92929 1.61711e-13 0)
(3.92929 1.79468e-13 0)
(3.92929 1.48239e-13 0)
(3.92929 1.07652e-13 0)
(3.92929 1.915e-14 0)
(3.92929 3.92068e-15 0)
(3.92929 6.60781e-15 0)
(3.92929 -4.48944e-14 0)
(3.92929 -1.09366e-13 0)
(3.92929 -1.51393e-13 0)
(3.92929 -1.87472e-13 0)
(3.92929 -1.58457e-13 0)
(3.92929 -1.56994e-13 0)
(3.92929 -1.50776e-13 0)
(3.92929 -4.70781e-14 0)
(3.92929 -4.56445e-14 0)
(3.92929 -1.3639e-14 0)
(3.92929 -3.35458e-14 0)
(3.92929 -9.666e-14 0)
(3.92929 -1.04488e-13 0)
(3.92929 -1.67806e-13 0)
(3.92929 -1.83668e-13 0)
(3.92929 -1.66262e-13 0)
(3.92929 -1.38941e-13 0)
(3.92929 -1.65605e-13 0)
(3.92929 -2.07102e-13 0)
(3.92929 -2.21538e-13 0)
(3.92929 -2.18078e-13 0)
(3.92929 -1.02068e-13 0)
(3.92929 5.0759e-14 0)
(3.92929 -9.76835e-15 0)
(3.92929 -3.02419e-14 0)
(3.92929 -2.48976e-14 0)
(3.92929 -9.37162e-15 0)
(3.92929 -1.75864e-14 0)
(3.92929 1.68362e-15 0)
(3.92929 5.9807e-14 0)
(3.92929 8.46646e-14 0)
(3.92929 6.89152e-14 0)
(3.92929 3.60929e-14 0)
(3.92929 5.09055e-14 0)
(3.92929 4.81883e-14 0)
(3.92929 4.02369e-14 0)
(3.92929 2.86783e-14 0)
(3.92929 -5.64831e-14 0)
(3.92929 -1.01317e-13 0)
(3.92929 -9.629e-14 0)
(3.92929 -7.30259e-14 0)
(3.92929 -7.97871e-14 0)
(3.92929 -1.01794e-13 0)
(3.92929 -1.1451e-13 0)
(3.92929 -1.10889e-13 0)
(3.92929 -9.29294e-14 0)
(3.92929 -1.22208e-13 0)
(3.92929 -1.36457e-13 0)
(3.92929 -1.04918e-14 0)
(3.92929 1.30222e-14 0)
(3.92929 -3.46026e-14 0)
(3.92929 -1.40341e-13 0)
(3.92929 -1.80214e-13 0)
(3.92929 -1.96957e-13 0)
(3.92929 -1.69879e-13 0)
(3.92929 -8.26176e-14 0)
(3.92929 -1.24648e-13 0)
(3.92929 -1.86346e-13 0)
(3.92929 -1.61718e-13 0)
(3.92929 -9.4543e-14 0)
(3.92929 3.16788e-14 0)
(3.92929 6.3711e-14 0)
(3.92929 2.95764e-14 0)
(3.92929 -2.92384e-15 0)
(3.92929 2.16671e-14 0)
(3.92929 1.86732e-14 0)
(3.92929 -3.08953e-14 0)
(3.92929 -4.8215e-14 0)
(3.92929 -1.15153e-14 0)
(3.92929 5.56496e-14 0)
(3.92929 2.92651e-14 0)
(3.92929 -2.9175e-14 0)
(3.92929 -9.67867e-14 0)
(3.92929 -1.69709e-13 0)
(3.92929 -1.80558e-13 0)
(3.92929 -8.85353e-14 0)
(3.92929 -5.30092e-16 0)
(3.92929 5.05021e-14 0)
(3.92929 -8.75485e-15 0)
(3.92929 -1.88699e-14 0)
(3.92929 -1.58194e-14 0)
(3.92929 -5.94236e-14 0)
(3.92929 -3.98502e-14 0)
(3.92929 -2.09603e-14 0)
(3.92929 -2.21905e-14 0)
(3.92929 -2.91617e-14 0)
(3.92929 -1.86199e-14 0)
(3.92929 -7.43195e-14 0)
(3.92929 -8.53481e-14 0)
(3.92929 -7.39994e-14 0)
(3.92929 -6.71616e-14 0)
(3.92929 -7.30993e-14 0)
(3.92929 -1.01091e-13 0)
(3.92929 -1.17534e-13 0)
(3.92929 -1.79564e-14 0)
(3.92929 5.33425e-15 0)
(3.92929 -9.72835e-14 0)
(3.92929 -1.42608e-13 0)
(3.92929 -1.11329e-13 0)
(3.92929 -1.27255e-14 0)
(3.92929 2.71947e-14 0)
(3.92929 5.30058e-14 0)
(3.92929 2.37834e-15 0)
(3.92929 -6.9312e-15 0)
(3.92929 2.3174e-14 0)
(3.92929 9.23159e-15 0)
(3.92929 1.29022e-14 0)
(3.92929 1.56394e-14 0)
(3.92929 -9.4583e-15 0)
(3.92929 -1.36124e-14 0)
(3.92929 2.42809e-14 0)
(3.92929 8.23476e-15 0)
(3.92929 -1.23288e-14 0)
(3.92929 -4.42476e-14 0)
(3.92929 -4.16172e-14 0)
(3.92929 2.8715e-14 0)
(3.92929 7.41495e-14 0)
(3.92929 1.07545e-13 0)
(3.92929 8.16508e-14 0)
(3.92929 1.35057e-14 0)
(3.92929 3.57095e-14 0)
(3.92929 6.22474e-14 0)
(3.92929 6.68115e-14 0)
(3.92929 6.67582e-14 0)
(3.92929 6.18007e-14 0)
(3.92929 -2.06036e-15 0)
(3.92929 -1.17354e-14 0)
(3.92929 3.43393e-16 0)
(3.92929 -4.63213e-14 0)
(3.92929 -5.96003e-14 0)
(3.92929 1.01684e-15 0)
(3.92929 6.94453e-15 0)
(3.92929 -2.67913e-14 0)
(3.92929 -4.10838e-14 0)
(3.92929 4.03403e-16 0)
(3.92929 -4.26207e-14 0)
(3.92929 -1.21131e-13 0)
(3.92929 -1.79408e-13 0)
(3.92929 -2.17097e-13 0)
(3.92929 -1.68936e-13 0)
(3.92929 -1.65055e-13 0)
(3.92929 -1.30116e-13 0)
(3.92929 -1.51612e-13 0)
(3.92929 -8.35811e-15 0)
(3.92929 -1.30389e-14 0)
(3.92929 -2.19071e-14 0)
(3.92929 5.801e-15 0)
(3.92929 5.27024e-14 0)
(3.92929 3.01219e-14 0)
(3.92929 1.37257e-14 0)
(3.92929 5.18523e-14 0)
(3.92929 6.41777e-14 0)
(3.92929 5.50595e-14 0)
(3.92929 9.06257e-14 0)
(3.92929 1.46852e-13 0)
(3.92929 1.08632e-13 0)
(3.92929 4.8095e-14 0)
(3.92929 5.68765e-15 0)
(3.92929 3.0762e-14 0)
(3.92929 -2.45342e-14 0)
(3.92929 -7.61898e-14 0)
(3.92929 -5.68798e-14 0)
(3.92929 -4.36775e-14 0)
(3.92929 -4.89651e-14 0)
(3.92929 -5.06687e-14 0)
(3.92929 -6.27875e-14 0)
(3.92929 -1.04998e-13 0)
(3.92929 -8.07739e-14 0)
(3.92929 -1.18384e-13 0)
(3.92929 -2.07176e-13 0)
(3.92929 -1.83915e-13 0)
(3.92929 -8.17841e-14 0)
(3.92929 -4.77216e-14 0)
(3.92929 -5.20957e-14 0)
(3.92929 -7.3536e-14 0)
(3.92929 -1.04368e-13 0)
(3.92929 -2.7287e-13 0)
(3.92929 -2.54621e-13 0)
(3.92929 -3.12914e-13 0)
(3.92929 -3.90664e-13 0)
(3.92929 -3.91191e-13 0)
(3.92929 -3.4739e-13 0)
(3.92929 -2.63415e-13 0)
(3.92929 1.32456e-14 0)
(3.92929 6.04438e-15 0)
(3.92929 -1.61061e-14 0)
(3.92929 3.72064e-15 0)
(3.92929 1.60528e-14 0)
(3.92929 -1.1572e-14 0)
(3.92929 -6.22174e-14 0)
(3.92929 2.46776e-14 0)
(3.92929 8.44212e-14 0)
(3.92929 8.4758e-14 0)
(3.92929 1.29032e-13 0)
(3.92929 1.1304e-13 0)
(3.92929 3.6633e-14 0)
(3.92929 -9.30861e-14 0)
(3.92929 -1.9037e-13 0)
(3.92929 -1.00274e-13 0)
(3.92929 -1.21354e-14 0)
(3.92929 2.98518e-14 0)
(3.92929 3.13154e-14 0)
(3.92929 2.21205e-14 0)
(3.92929 -1.49859e-14 0)
(3.92929 -5.34026e-14 0)
(3.92929 -5.6063e-14 0)
(3.92929 -5.30892e-14 0)
(3.92929 -1.14413e-13 0)
(3.92929 -1.39111e-13 0)
(3.92929 -2.3022e-13 0)
(3.92929 -2.74174e-13 0)
(3.92929 -2.37058e-13 0)
(3.92929 -1.82138e-13 0)
(3.92929 -1.5425e-13 0)
(3.92929 -1.82161e-13 0)
(3.92929 -2.67063e-13 0)
(3.92929 -3.43766e-13 0)
(3.92929 -2.82279e-13 0)
(3.92929 -2.61975e-13 0)
(3.92929 -3.33964e-13 0)
(3.92929 -4.17232e-13 0)
(3.92929 -4.68318e-13 0)
(3.92929 -4.57532e-13 0)
(3.92929 2.04302e-14 0)
(3.92929 6.34243e-14 0)
(3.92929 6.1634e-14 0)
(3.92929 4.15438e-14 0)
(3.92929 2.84449e-14 0)
(3.92929 -1.53493e-14 0)
(3.92929 -1.05335e-13 0)
(3.92929 -1.89666e-13 0)
(3.92929 -6.05871e-14 0)
(3.92929 1.03044e-13 0)
(3.92929 1.08002e-13 0)
(3.92929 5.28391e-14 0)
(3.92929 1.84098e-14 0)
(3.92929 -6.05938e-14 0)
(3.92929 -2.46409e-14 0)
(3.92929 7.29459e-15 0)
(3.92929 6.71783e-14 0)
(3.92929 1.00341e-13 0)
(3.92929 1.09389e-13 0)
(3.92929 1.25418e-13 0)
(3.92929 1.21631e-13 0)
(3.92929 8.33177e-14 0)
(3.92929 6.06371e-14 0)
(3.92929 -3.32524e-14 0)
(3.92929 -1.62811e-13 0)
(3.92929 -1.57767e-13 0)
(3.92929 -1.48069e-13 0)
(3.92929 -1.79814e-13 0)
(3.92929 -3.08817e-13 0)
(3.92929 -2.98925e-13 0)
(3.92929 -3.0687e-13 0)
(3.92929 -3.23119e-13 0)