/*--------------------------------*- C++ -*----------------------------------*\
| =========                 |                                                 |
| \\      /  F ield         | OpenFOAM: The Open Source CFD Toolbox           |
|  \\    /   O peration     | Version:  2206                                  |
|   \\  /    A nd           | Website:  www.openfoam.com                      |
|    \\/     M anipulation  |                                                 |
\*---------------------------------------------------------------------------*/
FoamFile
{
    version     2.0;
    format      ascii;
    arch        "LSB;label=32;scalar=64";
    class       volVectorField;
    location    "0.14";
    object      U;
}
// * * * * * * * * * * * * * * * * * * * * * * * * * * * * * * * * * * * * * //

dimensions      [0 1 -1 0 0 0 0];

internalField   nonuniform List<vector> 
75
(
(4.89899 -4.21406e-15 0)
(4.89899 -4.20114e-15 0)
(4.89899 4.49869e-15 0)
(4.89899 4.17572e-15 0)
(4.89899 3.30515e-15 0)
(4.89899 -2.65046e-16 0)
(4.89899 -4.62913e-15 0)
(4.89899 -4.32866e-15 0)
(4.89899 -3.99777e-15 0)
(4.89899 -2.92146e-15 0)
(4.89899 -3.76315e-16 0)
(4.89899 -5.86351e-16 0)
(4.89899 -8.85528e-15 0)
(4.89899 -8.05014e-15 0)
(4.89899 3.06323e-15 0)
(4.89899 -3.95485e-15 0)
(4.89899 -5.73849e-16 0)
(4.89899 2.23664e-15 0)
(4.89899 8.89695e-15 0)
(4.89899 1.93104e-14 0)
(4.89899 -3.19222e-16 0)
(4.89899 -3.08803e-16 0)
(4.89899 2.27706e-15 0)
(4.89899 1.25726e-14 0)
(4.89899 1.3737e-14 0)
(4.86382 0.0270916 0)
(4.81461 0.0212746 0)
(4.74817 0.171654 0)
(4.70158 0.204194 0)
(4.62069 0.384778 0)
(4.58244 0.444865 0)
(4.48508 0.652669 0)
(4.47609 0.711398 0)
(4.38053 0.925201 0)
(4.28773 1.05192 0)
(4.899 0.000340683 0)
(4.89892 -0.00108472 0)
(4.88726 0.0197497 0)
(4.86149 0.0819622 0)
(4.80467 0.211847 0)
(4.72668 0.421806 0)
(4.60461 0.716482 0)
(4.49898 1.03331 0)
(4.3376 1.40608 0)
(4.16116 1.52217 0)
(4.899 -6.18505e-06 0)
(4.89902 -5.43115e-05 0)
(4.89912 -0.000310952 0)
(4.89884 0.000304301 0)
(4.8994 -0.00165369 0)
(4.89719 0.00625074 0)
(4.88824 0.0278755 0)
(4.84783 0.157577 0)
(4.81797 0.357313 0)
(4.56122 0.984754 0)
(4.89899 -6.12836e-07 0)
(4.89899 -1.79344e-06 0)
(4.89901 -4.33663e-05 0)
(4.899 -4.38678e-05 0)
(4.89903 -0.00010701 0)
(4.89902 -9.01931e-05 0)
(4.89985 -0.00116948 0)
(4.89857 0.00241181 0)
(4.89884 0.0179306 0)
(4.70953 0.652517 0)
(4.89899 1.71767e-08 0)
(4.89899 4.78519e-08 0)
(4.89899 -1.56564e-07 0)
(4.89899 -4.16267e-06 0)
(4.899 -2.24107e-05 0)
(4.899 -2.58631e-05 0)
(4.89909 -0.000121131 0)
(4.89915 -0.000113219 0)
(4.89906 0.000221424 0)
(4.81153 0.125131 0)
)
;

boundaryField
{
    inlet
    {
        type            fixedValue;
        value           uniform (4.89899 0 0);
    }
    outlet
    {
        type            zeroGradient;
    }
    bottom
    {
        type            symmetryPlane;
    }
    top
    {
        type            symmetryPlane;
    }
    obstacle
    {
        type            slip;
    }
    defaultFaces
    {
        type            empty;
    }
}


// ************************************************************************* //
