/*--------------------------------*- C++ -*----------------------------------*\
| =========                 |                                                 |
| \\      /  F ield         | OpenFOAM: The Open Source CFD Toolbox           |
|  \\    /   O peration     | Version:  2206                                  |
|   \\  /    A nd           | Website:  www.openfoam.com                      |
|    \\/     M anipulation  |                                                 |
\*---------------------------------------------------------------------------*/
FoamFile
{
    version     2.0;
    format      ascii;
    arch        "LSB;label=32;scalar=64";
    class       volScalarField;
    location    "0.08";
    object      T;
}
// * * * * * * * * * * * * * * * * * * * * * * * * * * * * * * * * * * * * * //

dimensions      [0 0 0 1 0 0 0];

internalField   nonuniform List<scalar> 
4800
(
1
1
1
1
1
1
1
1
1
1
1
1
1
1
1
1
1
1
1
1
1
1
1
1
1
1
1
1
1
1
1
1
1
1
1
1
1
1
1
1
1
1
1
1
1
1
1
1
1
1
1
1
1
1
1
1
1
1
1
1
1
1
1
1
1
1
1
1
1
1
1
1
1
1
1
1
1
1
1
1
1
1
1
1
1
1
1
1
1
1
1
1
1
1
1
1
1
1
1
1
1
1
1
1
1
1
1
1
1
1
1
1
1
1
1
1
1
1
1
1
1
1
1
1
1
1
1
1
1
1
1
1
1
1
1
1
1
1
1
1
1
1
1
1
1
1
1
1
1
1
1
1
1
1
1
1
1
1
1
1
1
1
1
1
1
1
1
1
1
1
1
1
1
1
1
1
1
1
1
1
1
1
1
1
1
1
1
1
1
1
1
1
1
1
1
1
1
1
1
1
1
1
1
1
1
1
1
1
1
1
1
1
1
1
1
1
1
1
1
1
1
1
1
1
1
1
1
1
1
1
1
1
1
1
1
1
1
1
1
1
1
1
1
1
1
1
1
1
1
1
1
1
1
1
1
1
1
1
1
1
1
1
1
1
1
1
1
1
1
1
1
1
1
1
1
1
1
1
1
1
1
1
1
1
1
1
1
1
1
1
1
1
1
1
1
1
1
1
1
1
1
1
1
1
1
1
1
1
1
1
1
1
1
1
1
1
1
1
1
1
1
1
1
1
1
1
1
1
1
1
1
1
1
1
1
1
1
1
1
1
1
1
1
1
1
1
1
1
1
1
1
1
1
1
1
1
1
1
1
1
1
1
1
1
1
1
1
1
1
1
1
1
1
1
1
1
1
1
1
1
1
1
1
1
1
1
1
1
1
1
1
1
1
1
1
1
1
1
1
1
1
1
1
1
1
1
1
1
1
1
1
1
1
1
1
1
1
1
1
1
1
1
1
1
1
1
1
1
1
1
1
1
1
1
1
1
1
1
1
1
1
1
1
1
1
1
1
1
1
1
1
1
1
1
1
1
1
1
1
1
1
1
1
1
1
1
1
1
1
1
1
1
1
1
1
1
1
1
1
1
1
1
1
1
1
1
1
1
1
1
1
1
1
1
1
1
1
1
1
1
1
1
1
1
1
1
1
1
1
1
1
1
1
1
1
1
1
1
1
1
1
1
1
1
1
1
1
1
1
1
1
1
1
1
1
1
1
1
1
1
1
1
1
1
1
1
1
1
1
1
1
1
1
1
1
1
1
1
1
1
1
1
1
1
1
1
1
1
1
1
1
1
1
1
1
1
1
1
1
1
1
1
1
1
1
1
1
1
1
1
1
1
1
1
1
1
1
1
1
1
1
1
1
1
1
1
1
1
1
1
1
1
1
1
1
1
1
1
1
1
1
1
1
1
1
1
1
1
1
1
1
1
1
1
1
1
1
1
1
1
1
1
1
1
1
1
1
1
1
1
1
1
1
1
1
1
1
1
1
1
1
1
1
1
1
1
1
1
1
1
1
1
1
1
1
1
1
1
1
1
1
1
1
1
1
1
1
1
1
1
1
1
1
1
1
1
1
1
1
1
1
1
1
1
1
1
1
1
1
1
1
1
1
1
1
1
1
1
1
1
1
1
1
1
1
1
1
1
1
1
1
1
1
1
1
1
1
1
1
1
1
1
1
1
1
1
1
1
1
1
1
1
1
1
1
1
1
1
1
1
1
1
1
1
1
1
1
1
1
1
1
1
1
1
1
1
1
1
1
1
1
1
1
1
1
1
1
1
1
1
1
1
1
1
1
1
1
1
1
1
1
1
1
1
1
1
1
1
1
1
1
1
1
1
1
1
1
1
1
1
1
1
1
1
1
1
1
1
1
1
1
1
1
1
1
1
1
1
1
1
1
1
1
1
1
1
1
1
1
1
1
1
1
1
1
1
1
1
1
1
1
1
1
1
1
1
1
1
1
1
1
1
1
1
1
1
1
1
1
1
1
1
1
1
1
1
1
1
1
1
1
1
1
1
1
1
1
1
1
1
1
1
1
1
1
1
1
1
1
1
1
1
1
1
1
1
1
1
1
1
1
1
1
1
1
1
1
1
1
1
1
1
1
1
1
1
1
1
1
1
1
1
1
1
1
1
1
1
1
1
1
1
1
1
1
1
1
1
1
1
1
1
1
1
1
1
1
1
1
1
1
1
1
1
1
1
1
1
1
1
1
1
1
1
1
1
1
1
1
1
1
1
1
1
1
1
1
1
1
1
1
1
1
1
1
1
1
1
1
1
1
1
1
1
1
1
1
1
1
1
1
1
1
1
1
1
1
1
1
1
1
1
1
1
1
1
1
1
1
1
1
1
1
1
1
1
1
1
1
1
1
1
1
1
1
1
1
1
1
1
1
1
1
1
1
1
1
1
1
1
1
1
1
1
1
1
1
1
1
1
1
1
1
1
1
1
1
1
1
1
1
1
1
1
1
1
1
1
1
1
1
1
1
1
1
1
1
1
1
1
1
1
1
1
1
1
1
1
1
1
1
1
1
1
1
1
1
1
1
1
1
1
1
1
1
1
1
1
1
1
1
1
1
1
1
1
1
1
1
1
1
1
1
1
1
1
1
1
1
1
1
1
1
1
1
1
1
1
1
1
1
1
1
1
1
1
1
1
1
1
1
1
1
1
1
1
1
1
1
1
1
1
1
1
1
1
1
1
1
1
1
1
1
1
1
1
1
1
1
1
1
1
1
1
1
1
1
1
1
1
1
1
1
1
1
1
1
1
1
1
1
1
1
1
1
1
1
1
1
1
1
1
1
1
1
1
1
1
1
1
1
1
1
1
1
1
1
1
1
1
1
1
1
1
1
1
1
1
1
1
1
1
1
1
1
1
1
1
1
1
1
1
1
1
1
1
1
1
1
1
1
1
1
1
1
1
1
1
1
1
1
1
1
1
1
1
1
1
1
1
1
1
1
1
1
1
1
1
1
1
1
1
1
1
1
1
1
1
1
1
1
1
1
1
1
1
1
1
1
1
1
1
1
1
1
1
1
1
1
1
1
1
1
1
1
1
1
1
1
1
1
1
1
1
1
1
1
1
1
1
1
1
1
1
1
1
1
1
1
1
1
1
1
1
1
1
1
1
1
1
1
1
1
1
1
1
1
1
1
1
1
1
1
1
1
1
1
1
1
1
1
1
1
1
1
1
1
1
1
1
1
1
1
1
1
1
1
1
1
1
1
1
1
1
1
1
1
1
1
1
1
1
1
1
1
1
1
1
1
1
1
1
1
1
1
1
1
1
1
1
1
1
1
1
1
1
1
1
1
1
1
1
1
1
1
1
1
1
1
1
1
1
1
1
1
1
1
1
1
1
1
1
1
1
1
1
1
1
1
1
1
1
1
1
1
1
1
1
1
1
1
1
1
1
1
1
1
1
1
1
1
1
1
1
1
1
1
1
1
1
1
1
1
1
1
1
1
1
1
1
1
1
1
1
1
1
1
1
1
1
1
1
1
1
1
1
1
1
1
1
1
1
1
1
1
1
1
1
1
1
1
1
1
1
1
1
1
1
1
1
1
1
1
1
1
1
1
1
1
1
1
1
1
1
1
1
1
1
1
1
1.07029
1.16422
1.26166
1.34944
1.43991
1.54935
1.63978
1.695
1.74917
1.84007
1.91187
1.9213
1.93339
1.95224
1.95069
1.93787
1.90828
1.86652
1.82863
1.78656
1.74672
1.73039
1.72758
1.72054
1.70973
1.71046
1.71742
1.73009
1.74309
1.74478
1.74339
1.74531
1.75228
1.75994
1.7627
1.76235
1.76218
1.76336
1.76614
1.76806
1.76768
1.76512
1.76199
1.76108
1.76192
1.76518
1.76974
1.7724
1.77321
1.77302
1.77261
1.77207
1.77067
1.76788
1.76457
1.76315
1.76361
1.76599
1.77077
1.77577
1.77935
1.78075
1.7807
1.77874
1.774
1.7697
1.76813
1.76788
1.76823
1.76955
1.7703
1.77041
1.77117
1.77271
1.77355
1.77286
1.77092
1.76686
1.76171
1.75562
1
0.99987
0.999601
1.01141
1.02254
1.03975
1.11086
1.21191
1.27259
1.33483
1.43613
1.51854
1.5534
1.6082
1.65314
1.68623
1.70479
1.72606
1.78184
1.79309
1.79094
1.79255
1.79857
1.79791
1.78681
1.77243
1.76573
1.76675
1.76278
1.75352
1.74868
1.74953
1.75418
1.76177
1.76404
1.76331
1.76335
1.76575
1.77101
1.77317
1.77272
1.77068
1.77016
1.77038
1.77068
1.77059
1.77037
1.77015
1.77131
1.77407
1.77645
1.77672
1.77629
1.77567
1.77438
1.7723
1.77126
1.77163
1.77267
1.77354
1.77509
1.77722
1.77812
1.7778
1.77639
1.77621
1.77663
1.77727
1.77797
1.77806
1.77721
1.77526
1.77293
1.7709
1.76981
1.7685
1.76594
1.76254
1.75994
1.75757
1
1
1
1
1
1
1
1
0.999954
0.999529
1.00903
1.05102
1.103
1.19844
1.35169
1.47532
1.60417
1.74018
1.83776
1.85933
1.86593
1.87109
1.86982
1.86619
1.85511
1.83572
1.81712
1.79675
1.78695
1.77326
1.76997
1.77081
1.77438
1.77914
1.77938
1.77863
1.77804
1.77991
1.78325
1.78502
1.78644
1.78698
1.78712
1.78774
1.78808
1.78726
1.78399
1.78028
1.77934
1.77988
1.78265
1.78737
1.78978
1.78977
1.78878
1.78725
1.78554
1.78417
1.78255
1.78131
1.7803
1.77948
1.7793
1.77985
1.7819
1.7847
1.78746
1.78944
1.78995
1.78972
1.78827
1.78523
1.78125
1.77745
1.77374
1.76964
1.76447
1.76107
1.76045
1.76199
1
1
1
1
1
1
1
1
1
1
1
1
1
0.999764
1.0012
1.0129
1.08802
1.24464
1.43768
1.62421
1.70962
1.8035
1.83489
1.84564
1.84384
1.82583
1.82458
1.83588
1.84309
1.83762
1.82498
1.82179
1.81928
1.81635
1.80865
1.79682
1.78871
1.7883
1.78944
1.7928
1.79867
1.80615
1.80988
1.81134
1.81159
1.80997
1.80387
1.79621
1.79309
1.79305
1.79436
1.79813
1.80283
1.80541
1.80605
1.80576
1.80392
1.8011
1.79866
1.79637
1.79357
1.79092
1.78916
1.78861
1.7889
1.79063
1.795
1.8002
1.80259
1.80254
1.80083
1.79725
1.79201
1.78615
1.7808
1.77583
1.76946
1.76539
1.76476
1.76583
1
1
1
1
1
1
1
1
1
1
1
1
1
1
1
1
1
0.999612
1.0021
1.0619
1.17322
1.32171
1.51611
1.665
1.78894
1.82793
1.85516
1.88165
1.87973
1.8752
1.87038
1.86408
1.85539
1.83993
1.82946
1.82
1.81083
1.80749
1.8074
1.80843
1.81141
1.81832
1.824
1.82497
1.82498
1.82379
1.81988
1.81381
1.81222
1.81236
1.81313
1.81421
1.81505
1.81598
1.81662
1.81692
1.81687
1.81584
1.81404
1.81215
1.81016
1.80781
1.8052
1.80314
1.80228
1.80234
1.80346
1.8057
1.80845
1.80985
1.80973
1.80774
1.80386
1.79956
1.79507
1.78967
1.78215
1.77741
1.77605
1.77468
1
1
1
1
1
1
1
1
1
1
1
1
1
1
1
1
1
1
1
1
0.999949
0.999408
1.02551
1.10274
1.242
1.4497
1.59127
1.71941
1.76853
1.80065
1.82988
1.83269
1.83672
1.84675
1.84815
1.84603
1.83899
1.83329
1.82895
1.82399
1.81917
1.81776
1.81783
1.81852
1.82049
1.82314
1.82426
1.82612
1.8285
1.82897
1.82852
1.82727
1.82465
1.82143
1.81998
1.81977
1.82024
1.82266
1.82539
1.82645
1.82661
1.8262
1.82441
1.82055
1.81638
1.81491
1.81439
1.81412
1.81359
1.81325
1.8135
1.81431
1.81487
1.81385
1.81015
1.80455
1.79882
1.79369
1.78968
1.78509
1
1
1
1
1
1
1
1
1
1
1
1
1
1
1
1
1
1
1
1
1
1
0.999999
1
0.999563
1.00995
1.05069
1.16057
1.3708
1.52026
1.64519
1.72353
1.78893
1.83997
1.8494
1.84957
1.8492
1.84675
1.84139
1.83133
1.82032
1.81425
1.81377
1.81454
1.81707
1.82013
1.82555
1.83003
1.83228
1.8333
1.83321
1.83085
1.82684
1.822
1.81923
1.8187
1.8188
1.82133
1.82805
1.83331
1.83482
1.83485
1.83408
1.83204
1.82855
1.82346
1.82029
1.81907
1.81839
1.81794
1.81776
1.81819
1.81898
1.81938
1.81855
1.81541
1.81049
1.80589
1.80105
1.79389
1
1
1
1
1
1
1
1
1
1
1
1
1
1
1
1
1
1
1
1
1
1
1
1
1
1
1
0.999692
1.00534
1.02882
1.11433
1.31006
1.46437
1.60567
1.67836
1.74544
1.80064
1.81604
1.82238
1.82566
1.82535
1.81813
1.81437
1.81374
1.814
1.81633
1.81942
1.82249
1.82499
1.82733
1.82956
1.83176
1.83105
1.82576
1.81991
1.81832
1.81863
1.82046
1.82363
1.82806
1.83206
1.83488
1.83555
1.83455
1.83233
1.83092
1.82931
1.8275
1.82574
1.82391
1.8226
1.82138
1.81977
1.81886
1.81881
1.81736
1.81464
1.81129
1.80712
1.79993
1
1
1
1
1
1
1
1
1
1
1
1
1
1
1
1
1
1
1
1
1
1
1
1
1
1
1
1
1
1
0.999776
1.00188
1.01598
1.09541
1.25749
1.3989
1.55933
1.6593
1.75686
1.80509
1.8133
1.8154
1.81547
1.8146
1.81192
1.80957
1.80555
1.80247
1.80299
1.80966
1.81939
1.82479
1.82732
1.8282
1.82716
1.82438
1.8218
1.8197
1.81961
1.82112
1.82326
1.82419
1.82486
1.82573
1.8272
1.82905
1.83137
1.83322
1.83341
1.83231
1.8292
1.82489
1.82125
1.8189
1.81686
1.81499
1.81217
1.80969
1.80806
1.80512
1
1
1
1
1
1
1
1
1
1
1
1
1
1
1
1
1
1
1
1
1
1
1
1
1
1
1
1
1
1
1
1
1
0.999827
1.00073
1.00959
1.09074
1.25082
1.39421
1.54013
1.6372
1.74111
1.78657
1.7898
1.79632
1.80243
1.79471
1.78699
1.78844
1.79504
1.80253
1.81092
1.8164
1.81778
1.81879
1.8214
1.8246
1.82453
1.82106
1.81718
1.81563
1.81496
1.81427
1.81428
1.81543
1.8192
1.82586
1.83087
1.83236
1.83242
1.83177
1.82952
1.82473
1.8181
1.81286
1.80937
1.80714
1.80582
1.80572
1.80511
1
1
1
1
1
1
1
1
1
1
1
1
1
1
1
1
1
1
1
1
1
1
1
1
1
1
1
1
1
1
1
1
1
1
1
1
0.999827
1.00092
1.01053
1.08723
1.2197
1.387
1.54187
1.65071
1.74498
1.77943
1.78623
1.78666
1.78644
1.78373
1.78671
1.79122
1.79487
1.79899
1.8041
1.81095
1.81614
1.81851
1.8201
1.82022
1.81726
1.81196
1.80739
1.8055
1.80642
1.81009
1.81567
1.8203
1.82386
1.82628
1.82691
1.82586
1.82401
1.82071
1.81318
1.80476
1.80287
1.80226
1.80216
1.8028
1
1
1
1
1
1
1
1
1
1
1
1
1
1
1
1
1
1
1
1
1
1
1
1
1
1
1
1
1
1
1
1
1
1
1
1
1
1
1
0.999885
1.00063
1.01281
1.10767
1.24532
1.40001
1.53675
1.67354
1.76752
1.77708
1.77308
1.78037
1.7785
1.7747
1.77343
1.77517
1.78318
1.7966
1.80617
1.80851
1.81013
1.81181
1.81367
1.81313
1.80836
1.80384
1.80354
1.80582
1.80979
1.81094
1.81212
1.81437
1.81706
1.81759
1.81646
1.81394
1.80606
1.799
1.79803
1.79816
1.80005
1
1
1
1
1
1
1
1
1
1
1
1
1
1
1
1
1
1
1
1
1
1
1
1
1
1
1
1
1
1
1
1
1
1
1
1
1
1
1
1
0.999998
1
0.999991
1.00152
1.02117
1.11758
1.2715
1.47133
1.59494
1.70024
1.75559
1.77204
1.77312
1.77083
1.76499
1.76714
1.7741
1.78342
1.78732
1.79219
1.79991
1.80598
1.80762
1.80702
1.80767
1.80796
1.80715
1.8045
1.80135
1.80054
1.80101
1.80219
1.8056
1.80898
1.80771
1.80274
1.79549
1.79421
1.79428
1.79596
1
1
1
1
1
1
1
1
1
1
1
1
1
1
1
1
1
1
1
1
1
1
1
1
1
1
1
1
1
1
1
1
1
1
1
1
1
1
1
1
1
1
1
0.999999
0.999981
1.00011
1.00342
1.05353
1.18068
1.32688
1.4889
1.63122
1.75296
1.77215
1.76901
1.77652
1.77651
1.77139
1.76744
1.76682
1.77238
1.78252
1.79215
1.79691
1.79899
1.80167
1.80494
1.80622
1.8032
1.79501
1.79127
1.79173
1.79533
1.79916
1.79907
1.79688
1.79088
1.78776
1.78803
1.78915
1
1
1
1
1
1
1
1
1
1
1
1
1
1
1
1
1
1
1
1
1
1
1
1
1
1
1
1
1
1
1
1
1
1
1
1
1
1
1
1
1
1
1
1
1
1
1
0.999987
1.00078
1.01011
1.08264
1.22185
1.44798
1.60231
1.70582
1.75162
1.77316
1.77683
1.77403
1.76342
1.76401
1.76684
1.77162
1.77561
1.78
1.78939
1.79871
1.80181
1.8014
1.79892
1.79256
1.78847
1.78839
1.791
1.79338
1.79245
1.78794
1.78061
1.77924
1.77994
1
1
1
1
1
1
1
1
1
1
1
1
1
1
1
1
1
1
1
1
1
1
1
1
1
1
1
1
1
1
1
1
1
1
1
1
1
1
1
1
1
1
1
1
1
1
1
1
1
0.999985
1.00008
1.0025
1.0494
1.21684
1.36949
1.49997
1.64828
1.75894
1.77762
1.77644
1.78427
1.78316
1.77227
1.76637
1.76588
1.77136
1.7808
1.79012
1.79393
1.79203
1.78729
1.78297
1.78316
1.78597
1.78908
1.78821
1.78444
1.77772
1.77207
1.77209
1
1
1
1
1
1
1
1
1
1
1
1
1
1
1
1
1
1
1
1
1
1
1
1
1
1
1
1
1
1
1
1
1
1
1
1
1
1
1
1
1
1
1
1
1
1
1
1
1
0.999999
0.999999
0.999994
1.00004
1.00228
1.01851
1.10769
1.26245
1.49541
1.64401
1.73943
1.7705
1.7784
1.77866
1.77968
1.77432
1.77225
1.77425
1.77849
1.78301
1.78313
1.7816
1.77883
1.77762
1.77942
1.7838
1.78333
1.78005
1.77527
1.76854
1.76706
1
1
1
1
1
1
1
1
1
1
1
1
1
1
1
1
1
1
1
1
1
1
1
1
1
1
1
1
1
1
1
1
1
1
1
1
1
1
1
1
1
1
1
1
1
1
1
1
1
1
1
1
1
1
0.999983
1.00044
1.00579
1.09435
1.31515
1.48938
1.58982
1.70655
1.77242
1.78667
1.78438
1.78677
1.7916
1.78883
1.78464
1.78133
1.77769
1.77403
1.77312
1.77458
1.777
1.77795
1.77484
1.76915
1.76295
1.76199
1
1
1
1
1
1
1
1
1
1
1
1
1
1
1
1
1
1
1
1
1
1
1
1
1
1
1
1
1
1
1
1
1
1
1
1
1
1
1
1
1
1
1
1
1
1
1
1
1
1
1
1
1
1
0.999999
0.999999
0.999988
1.00068
1.01165
1.07581
1.24024
1.43372
1.61811
1.71381
1.75341
1.77483
1.78633
1.78758
1.7872
1.78593
1.78456
1.78129
1.77726
1.77608
1.7738
1.77244
1.76892
1.76297
1.75836
1.75731
1
1
1
1
1
1
1
1
1
1
1
1
1
1
1
1
1
1
1
1
1
1
1
1
1
1
1
1
1
1
1
1
1
1
1
1
1
1
1
1
1
1
1
1
1
1
1
1
1
1
1
1
1
1
1
1
0.999999
1
0.999988
1.00028
1.00647
1.04783
1.25365
1.52188
1.65609
1.69317
1.73042
1.76287
1.77782
1.78448
1.78878
1.78826
1.784
1.77923
1.77544
1.77242
1.76953
1.76524
1.75912
1.75323
1
1
1
1
1
1
1
1
1
1
1
1
1
1
1
1
1
1
1
1
1
1
1
1
1
1
1
1
1
1
1
1
1
1
1
1
1
1
1
1
1
1
1
1
1
1
1
1
1
1
1
1
1
1
1
1
1
1
0.999999
0.999999
0.999992
1.00014
1.01142
1.08637
1.2978
1.49491
1.65179
1.7112
1.73932
1.76286
1.77476
1.77906
1.77719
1.77262
1.76928
1.76926
1.77078
1.77053
1.76762
1.75755
1
1
1
1
1
1
1
1
1
1
1
1
1
1
1
1
1
1
1
1
1
1
1
1
1
1
1
1
1
1
1
1
1
1
1
1
1
1
1
1
1
1
1
1
1
1
1
1
1
1
1
1
1
1
1
1
1
1
1
1
0.999999
0.999999
1
1.00051
1.01697
1.0916
1.27226
1.51705
1.70508
1.77899
1.77599
1.77163
1.76714
1.76039
1.75245
1.75174
1.75918
1.77112
1.77132
1.76506
1
1
1
1
1
1
1
1
1
1
1
1
1
1
1
1
1
1
1
1
1
1
1
1
1
1
1
1
1
1
1
1
1
1
1
1
1
1
1
1
1
1
1
1
1
1
1
1
1
1
1
1
1
1
1
1
1
1
1
1
1
1
1
0.999999
1.00001
1.00064
1.01365
1.13463
1.37639
1.59319
1.73638
1.78568
1.78307
1.77687
1.75827
1.74483
1.74535
1.75509
1.76891
1.76899
1
1
1
1
1
1
1
1
1
1
1
1
1
1
1
1
1
1
1
1
1
1
1
1
1
1
1
1
1
1
1
1
1
1
1
1
1
1
1
1
1
1
1
1
1
1
1
1
1
1
1
1
1
1
1
1
1
1
1
1
1
1
1
1
1
0.999999
1.00002
1.00199
1.03989
1.21439
1.4615
1.65173
1.77277
1.7793
1.775
1.75652
1.74595
1.74749
1.76005
1.76577
1
1
1
1
1
1
1
1
1
1
1
1
1
1
1
1
1
1
1
1
1
1
1
1
1
1
1
1
1
1
1
1
1
1
1
1
1
1
1
1
1
1
1
1
1
1
1
1
1
1
1
1
1
1
1
1
1
1
1
1
1
1
1
1
1
1
1
0.999997
1.00022
1.00687
1.09565
1.31245
1.55039
1.73416
1.77262
1.76797
1.75141
1.73928
1.74154
1.75444
1
1
1
1
1
1
1
1
1
1
1
1
1
1
1
1
1
1
1
1
1
1
1
1
1
1
1
1
1
1
1
1
1
1
1
1
1
1
1
1
1
1
1
1
1
1
1
1
1
1
1
1
1
1
1
1
1
1
1
1
1
1
1
1
1
1
1
1
0.999999
1
1.00125
1.02526
1.16439
1.43379
1.66678
1.76273
1.75824
1.73921
1.7241
1.73186
1
1
1
1
1
1
1
1
1
1
1
1
1
1
1
1
1
1
1
1
1
1
1
1
1
1
1
1
1
1
1
1
1
1
1
1
1
1
1
1
1
1
1
1
1
1
1
1
1
1
1
1
1
1
1
1
1
1
1
1
1
1
1
1
1
1
1
1
1
1
0.999998
1.0001
1.00456
1.08014
1.30977
1.55924
1.72189
1.73938
1.73023
1.72255
1
1
1
1
1
1
1
1
1
1
1
1
1
1
1
1
1
1
1
1
1
1
1
1
1
1
1
1
1
1
1
1
1
1
1
1
1
1
1
1
1
1
1
1
1
1
1
1
1
1
1
1
1
1
1
1
1
1
1
1
1
1
1
1
1
1
1
1
1
1
1
0.999999
1
1.00108
1.02889
1.17814
1.42371
1.64885
1.72301
1.72474
1
1
1
1
1
1
1
1
1
1
1
1
1
1
1
1
1
1
1
1
1
1
1
1
1
1
1
1
1
1
1
1
1
1
1
1
1
1
1
1
1
1
1
1
1
1
1
1
1
1
1
1
1
1
1
1
1
1
1
1
1
1
1
1
1
1
1
1
1
1
1
1
1
0.999999
1.00017
1.00581
1.07779
1.2914
1.53621
1.6985
1
1
1
1
1
1
1
1
1
1
1
1
1
1
1
1
1
1
1
1
1
1
1
1
1
1
1
1
1
1
1
1
1
1
1
1
1
1
1
1
1
1
1
1
1
1
1
1
1
1
1
1
1
1
1
1
1
1
1
1
1
1
1
1
1
1
1
1
1
1
1
1
1
1
0.999999
1
1.00105
1.02455
1.15562
1.53753
1
1
1
1
1
1
1
1
1
1
1
1
1
1
1
1
1
1
1
1
1
1
1
1
1
1
1
1
1
1
1
1
1
1
1
1
1
1
1
1
1
1
1
1
1
1
1
1
1
1
1
1
1
1
1
1
1
1
1
1
1
1
1
1
1
1
1
1
1
1
1
1
1
1
1
1
0.999999
1.00016
1.00474
1.20905
1
1
1
1
1
1
1
1
1
1
1
1
1
1
1
1
1
1
1
1
1
1
1
1
1
1
1
1
1
1
1
1
1
1
1
1
1
1
1
1
1
1
1
1
1
1
1
1
1
1
1
1
1
1
1
1
1
1
1
1
1
1
1
1
1
1
1
1
1
1
1
1
1
1
1
1
1
1
1.00002
1.01908
1
1
1
1
1
1
1
1
1
1
1
1
1
1
1
1
1
1
1
1
1
1
1
1
1
1
1
1
1
1
1
1
1
1
1
1
1
1
1
1
1
1
1
1
1
1
1
1
1
1
1
1
1
1
1
1
1
1
1
1
1
1
1
1
1
1
1
1
1
1
1
1
1
1
1
1
1
1
1
1.00042
1
1
1
1
1
1
1
1
1
1
1
1
1
1
1
1
1
1
1
1
1
1
1
1
1
1
1
1
1
1
1
1
1
1
1
1
1
1
1
1
1
1
1
1
1
1
1
1
1
1
1
1
1
1
1
1
1
1
1
1
1
1
1
1
1
1
1
1
1
1
1
1
1
1
1
1
1
1
1
1
1
1
1
1
1
1
1
1
1
1
1
1
1
1
1
1
1
1
1
1
1
1
1
1
1
1
1
1
1
1
1
1
1
1
1
1
1
1
1
1
1
1
1
1
1
1
1
1
1
1
1
1
1
1
1
1
1
1
1
1
1
1
1
1
1
1
1
1
1
1
1
1
1
1
1
1
1
1
1
1
1
1
1
1
1
1
1
1
1
1
1
1
1
1
1
1
1
1
1
1
1
1
1
1
1
1
1
1
1
1
1
1
1
1
1
1
1
1
1
1
1
1
1
1
1
1
1
1
1
1
1
1
1
1
1
1
1
1
1
1
1
1
1
1
1
1
1
1
1
1
1
1
1
1
1
1
1
1
1
1
1
1
1
1
1
1
1
1
1
1
1
1
1
1
1
1
1
1
1
1
1
1
1
1
1
1
1
1
1
1
1
1
1
1
1
1
1
1
1
1
1
1
1
1
1
1
1
1
1
1
1
1
1
1
1
1
1
1
1
1
1
1
1
1
1
1
1
1
1
1
1
1
1
1
1
1
1
1
1
1
1
1
1
1
1
1
1
1
1
1
1
1
1
1
1
1
1
1
1
1
1
1
1
1
1
1
1
1
1
1
1
1
1
1
1
1
1
1
1
1
1
1
1
1
1
1
1
1
1
1
1
1
1
1
1
1
1
1
1
1
1
1
1
1
1
1
1
1
1
1
1
1
1
1
1
1
1
1
1
1
1
1
1
1
1
1
1
1
1
1
1
1
1
1
1
1
1
1
1
1
1
1
1
1
1
1
1
1
1
1
1
1
1
1
1
1
1
1
1
1
1
1
1
1
1
1
1
1
1
1
1
1
1
1
1
1
1
1
1
1
1
1
1
1
1
1
1
1
1
1
1
1
1
1
1
1
1
1
1
1
1
1
1
1
1
1
1
1
1
1
1
1
1
1
1
1
1
1
1
1
1
1
1
1
1
1
1
1
1
1
1
1
1
1
1
1
1
1
1
1
1
1
1
1
1
1
1
1
1
1
1
1
1
1
1
1
1
1
1
1
1
1
1
1
1
1
1
1
1
1
1
1
1
1
1
1
1
1
1
1
)
;

boundaryField
{
    inlet
    {
        type            fixedValue;
        value           uniform 1;
    }
    outlet
    {
        type            zeroGradient;
    }
    bottom
    {
        type            symmetryPlane;
    }
    top
    {
        type            symmetryPlane;
    }
    obstacle
    {
        type            zeroGradient;
    }
    defaultFaces
    {
        type            empty;
    }
}


// ************************************************************************* //
