/*--------------------------------*- C++ -*----------------------------------*\
| =========                 |                                                 |
| \\      /  F ield         | OpenFOAM: The Open Source CFD Toolbox           |
|  \\    /   O peration     | Version:  2206                                  |
|   \\  /    A nd           | Website:  www.openfoam.com                      |
|    \\/     M anipulation  |                                                 |
\*---------------------------------------------------------------------------*/
FoamFile
{
    version     2.0;
    format      ascii;
    arch        "LSB;label=32;scalar=64";
    class       volScalarField;
    location    "0.18";
    object      p;
}
// * * * * * * * * * * * * * * * * * * * * * * * * * * * * * * * * * * * * * //

dimensions      [1 -1 -2 0 0 0 0];

internalField   nonuniform List<scalar> 
4800
(
1
1
1
1
1
1
1
1
1
1
1
1
1
1
1
1
1
1
1
1
1
1
1
1
1
1
1
1
1
1
1
1
1
1
1
1
1
1
1
1
1
1
1
1
1
1
1
1
1
1
1
1
1
1
1
1
1
1
1
1
1
1
1
1
1
1
1
1
1
1
1
1
1
1
1
1
1
1
1
1
1
1
1
1
1
1
1
1
1
1
1
1
1
1
1
1
1
1
1
1
1
1
1
1
1
1
1
1
1
1
1
1
1
1
1
1
1
1
1
1
1
1
1
1
1
1
1
1
1
1
1
1
1
1
1
1
1
1
1
1
1
1
1
1
1
1
1
1
1
1
1
1
1
1
1
1
1
1
1
1
1
1
1
1
1
1
1
1
1
1
1
1
1
1
1
1
1
1
1
1
1
1
1
1
1
1
1
1
1
1
1
1
1
1
1
1
1
1
1
1
1
1
1
1
1
1
1
1
1
1
1
1
1
1
1
1
1
1
1
1
1
1
1
1
1
1
1
1
1
1
1
1
1
1
1
1
1
1
1
1
1
1
1
1
1
1
1
1
1
1
1
1
1
1
1
1
1
1
1
1
1
1
1
1
1
1
1
1
1
1
1
1
1
1
1
1
1
1
1
1
1
1
1
1
1
1
1
1
1
1
1
1
1
1
1
1
1
1
1
1
1
1
1
1
1
1
1
1
1
1
1
1
1
1
1
1
1
1
1
1
1
1
1
1
1
1
1
1
1
1
1
1
1
1
1
1
1
1
1
1
1
1
1
1
1
1
1
1
1
1
1
1
1
1
1
1
1
1
1
1
1
1
1
1
1
1
1
1
1
1
1
1
1
1
1
1
1
1
1
1
1
1
1
1
1
1
1
1
1
1
1
1
1
1
1
1
1
1
1
1
1
1
1
1
1
1
1
1
1
1
1
1
1
1
1
1
1
1
1
1
1
1
1
1
1
1
1
1
1
1
1
1
1
1
1
1
1
1
1
1
1
1
1
1
1
1
1
1
1
1
1
1
1
1
1
1
1
1
1
1
1
1
1
1
1
1
1
1
1
1
1
1
1
1
1
1
1
1
1
1
1
1
1
1
1
1
1
1
1
1
1
1
1
1
1
1
1
1
1
1
1
1
1
1
1
1
1
1
1
1
1
1
1
1
1
1
1
1
1
1
1
1
1
1
1
1
1
1
1
1
1
1
1
1
1
1
1
1
1
1
1
1
1
1
1
1
1
1
1
1
1
1
1
1
1
1
1
1
1
1
1
1
1
1
1
1
1
1
1
1
1
1
1
1
1
1
1
1
1
1
1
1
1
1
1
1
1
1
1
1
1
1
1
1
1
1
1
1
1
1
1
1
1
1
1
1
1
1
1
1
1
1
1
1
1
1
1
1
1
1
1
1
1
1
1
1
1
1
1
1
1
1
1
1
1
1
1
1
1
1
1
1
1
1
1
1
1
1
1
1
1
1
1
1
1
1
1
1
1
1
1
1
1
1
1
1
1
1
1
1
1
1
1
1
1
1
1
1
1
1
1
1
1
1
1
1
1
1
1
1
1
1
1
1
1
1
1
1
1
1
1
1
1
1
1
1
1
1
1
1
1
1
1
1
1
1
1
1
1
1
1
1
1
1
1
1
1
1
1
1
1
1
1
1
1
1
1
1
1
1
1
1
1
1
1
1
1
1
1
1
1
1
1
1
1
1
1
1
1
1
1
1
1
1
1
1
1
1
1
1
1
1
1
1
1
1
1
1
1
1
1
1
1
1
1
1
1
1
1
1
1
1
1
1
1
1
1
1
1
1
1
1
1
1
1
1
1
1
1
1
1
1
1
1
1
1
1
1
1
1
1
1
1
1
1
1
1
1
1
1
1
1
1
1
1
1
1
1
1
1
1
1
1
1
1
1
1
1
1
1
1
1
1
1
1
1
1
1
1
1
1
1
1
1
1
1
1
1
1
1
1
1
1
1
1
1
1
1
1
1
1
1
1
1
1
1
1
1
1
1
1
1
1
1
1
1
1
1
1
1
1
1
1
1
1
1
1
1
1
1
1
1
1
1
1
1
1
1
1
1
1
1
1
1
1
1
1
1
1
1
1
1
1
1
1
1
1
1
1
1
1
1
1
1
1
1
1
1
1
1
1
1
1
1
1
1
1
1
1
1
1
1
1
1
1
1
1
1
1
1
1
1
1
1
1
1
1
1
1
1
1
1
1
1
1
1
1
1
1
1
1
1
1
1
1
1
1
1
1
1
1
1
1
1
1
1
1
1
1
1
1
1
1
1
1
1
1
1
1
1
1
1
1
1
1
1
1
1
1
1
1
1
1
1
1
1
1
1
1
1
1
1
1
1
1
1
1
1
1
1
1
1
1
1
1
1
1
1
1
1
1
1
1
1
1
1
1
1
1
1
1
1
1
1
1
1
1
1
1
1
1
1
1
1
1
1
1
1
1
1
1
1
1
1
1
1
1
1
1
1
1
1
1
1
1
1
1
1
1
1
1
1
1
1
1
1
1
1
1
1
1
1
1
1
1
1
1
1
1
1
1
1
1
1
1
1
1
1
1
1
1
1
1
1
1
1
1
1
1
1
1
1
1
1
1
1
1
1
1
1
1
1
1
1
1
1
1
1
1
1
1
1
1
1
1
1
1
1
1
1
1
1
1
1
1
1
1
1
1
1
1
1
1
1
1
1
1
1
1
1
1
1
1
1
1
1
1
1
1
1
1
1
1
1
1
1
1
1
1
1
1
1
1
1
1
1
1
1
1
1
1
1
1
1
1
1
1
1
1
1
1
1
1
1
1
1
1
1
1
1
1
1
1
1
1
1
1
1
1
1
1
1
1
1
1
1
1
1
1
1
1
1
1
1
1
1
1
1
1
1
1
1
1
1
1
1
1
1
1
1
1
1
1
1
1
1
1
1
1
1
1
1
1
1
1
1
1
1
1
1
1
1
1
1
1
1
1
1
1
1
1
1
1
1
1
1
1
1
1
1
1
1
1
1
1
1
1
1
1
1
1
1
1
1
1
1
1
1
1
1
1
1
1
1
1
1
1
1
1
1
1
1
1
1
1
1
1
1
1
1
1
1
1
1
1
1
1
1
1
1
1
1
1
1
1
1
1
1
1
1
1
1
1
1
1
1
1
1
1
1
1
1
1
1
1
1
1
1
1
1
1
1
1
1
1
1
1
1
1
1
1
1
1
1
1
1
1
1
1
1
1
1
1
1
1
1
1
1
1
1
1
1
1
1
1
1
1
1
1
1
1
1
1
1
1
1
1
1
1
1
1
1
1
1
1
1
1
1
1
1
1
1
1
1
1
1
1
1
1
1
1
1
1
1
1
1
1
1
1
1
1
1
1
1
1
1
1
1
1
1
1
1
1
1
1
1
1
1
1
1
1
1
1
1
1
1
1
1
1
1
1
1
1
1
1
1
1
1
1
1
1
1
1
1
1
1
1
1
1
1
1
1
1
1
1
1
1
1
1
1
1
1
1
1
1
1
1
1
1
1
1
1
1
1
1
1
1
1
1
1
1
1
1
1
1
1
1
1
1
1
1
1
1
1
1
1
1
1
1
1
1
1
1
1
1
1
1
1
1
1
1.26035
1.66808
2.16442
2.78456
3.35842
3.8932
4.63489
5.5561
5.96014
6.25524
6.77909
7.55123
7.75125
7.5706
7.49093
7.48323
7.33727
6.89086
6.24578
5.58366
5.21162
5.05293
4.9637
4.877
4.80518
4.79561
4.80922
4.84599
4.88422
4.92186
5.0001
5.10097
5.18403
5.22852
5.22924
5.20729
5.17063
5.16255
5.17133
5.17358
5.17461
5.18127
5.20146
5.23178
5.25329
5.26609
5.26691
5.25848
5.2479
5.23785
5.21984
5.19273
5.16295
5.15108
5.15759
5.19801
5.26124
5.30524
5.3205
5.31965
5.30616
5.27447
5.22622
5.18101
5.15255
5.14077
5.1428
5.16516
5.20793
5.26575
5.31274
5.3399
5.34842
5.34442
5.32272
5.28839
5.24126
5.20816
5.19531
5.19667
1
0.999992
0.998878
0.99842
1.06438
1.16648
1.22841
1.41935
1.81697
2.19604
2.54307
3.05097
3.72331
4.15066
4.4218
4.99297
5.26565
5.25486
5.41586
5.58157
5.65788
5.70012
5.61969
5.46701
5.39131
5.34192
5.25513
5.16707
5.10054
5.04263
5.02176
5.02169
5.02934
5.06365
5.12563
5.14995
5.16444
5.17938
5.18958
5.19714
5.20239
5.20218
5.19083
5.18243
5.18428
5.19442
5.21665
5.24226
5.24981
5.24823
5.24681
5.24036
5.22213
5.19679
5.19023
5.19861
5.20715
5.22015
5.24153
5.26041
5.26765
5.26189
5.24941
5.24503
5.23901
5.23003
5.22618
5.2276
5.23142
5.23035
5.2305
5.23985
5.25432
5.26905
5.2754
5.26805
5.25322
5.25287
5.25715
5.26359
1
1
1
1
1
1
0.999989
0.999997
1
0.998519
1.01086
1.05415
1.2064
1.52453
1.89758
2.51626
3.42852
4.44972
5.29864
5.74648
6.09034
6.18838
6.14294
6.02137
5.87777
5.7671
5.6433
5.38887
5.21076
5.10913
5.01748
4.99426
4.99727
5.02811
5.08036
5.12283
5.15094
5.17292
5.19464
5.21654
5.22869
5.22961
5.22185
5.19496
5.16893
5.16017
5.16392
5.18527
5.22664
5.26514
5.27747
5.27362
5.25657
5.24446
5.23131
5.21505
5.2047
5.19484
5.1832
5.18173
5.19888
5.23576
5.27402
5.29162
5.29652
5.29889
5.29576
5.28378
5.26373
5.2358
5.20716
5.19018
5.18367
5.18613
5.20558
5.24107
5.27496
5.2925
5.30619
5.31016
1
1
1
1
1
1
1
1
1
1
1
1
1
1
0.998776
1.00737
1.11923
1.45087
2.06492
2.97022
3.81731
4.82138
5.11262
5.32599
5.48239
5.43441
5.42921
5.53031
5.57097
5.54681
5.41173
5.27732
5.21161
5.17903
5.12855
5.06251
5.03637
5.03668
5.06155
5.11682
5.19632
5.23362
5.2383
5.23089
5.20418
5.16866
5.14786
5.1483
5.16426
5.20369
5.24656
5.27502
5.28839
5.28695
5.27036
5.24904
5.23215
5.20929
5.17829
5.15623
5.15911
5.18058
5.22586
5.28295
5.32155
5.33198
5.32767
5.31348
5.28069
5.22537
5.18482
5.17223
5.17427
5.18333
5.19292
5.21026
5.24281
5.27796
5.31454
5.32899
1
1
1
1
1
1
1
1
1
1
1
1
1
1
1
0.999997
1
0.999965
0.998631
1.05773
1.22048
1.62284
2.42836
3.19109
4.17368
4.75314
5.20444
5.64321
5.71403
5.70127
5.67271
5.59529
5.50346
5.33422
5.19228
5.07462
5.03632
5.03573
5.04903
5.08482
5.15128
5.20524
5.22593
5.22872
5.21732
5.18177
5.15461
5.15677
5.16928
5.18651
5.20744
5.23518
5.26067
5.27198
5.27383
5.2649
5.24441
5.22295
5.20006
5.17351
5.16557
5.17298
5.19208
5.21988
5.25523
5.29039
5.30694
5.30663
5.28118
5.24792
5.23131
5.21961
5.21665
5.21985
5.22448
5.22986
5.23883
5.25369
5.27431
5.28935
1
1
1
1
1
1
1
1
1
1
1
1
1
1
1
1
1
1
1
1
1
0.998992
1.01759
1.0873
1.33869
2.06187
2.80809
3.71712
4.26756
4.73209
5.20953
5.29622
5.33452
5.36131
5.36123
5.30303
5.24007
5.18578
5.14806
5.13764
5.16944
5.18323
5.17856
5.16591
5.15727
5.14626
5.14162
5.14957
5.17592
5.20534
5.20492
5.19702
5.19682
5.2066
5.2311
5.26384
5.27696
5.27504
5.26786
5.24971
5.21705
5.21105
5.21426
5.20731
5.20181
5.20516
5.2153
5.23377
5.25387
5.26628
5.26841
5.2732
5.28454
5.28856
5.28309
5.26436
5.2551
5.25285
5.25038
5.24073
1
1
1
1
1
1
1
1
1
1
1
1
1
1
1
1
1
1
1
1
1
1
1
1
0.999406
1.00475
1.04253
1.2038
1.70185
2.32216
3.23082
3.97585
4.65093
5.255
5.40973
5.44998
5.43742
5.37585
5.29068
5.20356
5.10464
5.09286
5.09773
5.10753
5.12993
5.17385
5.21912
5.23265
5.22915
5.20661
5.18108
5.1536
5.13304
5.13365
5.15112
5.2097
5.28303
5.30474
5.30641
5.30723
5.30625
5.27659
5.22463
5.18619
5.16687
5.16172
5.16428
5.17842
5.20662
5.24279
5.27851
5.30514
5.31751
5.32057
5.31395
5.293
5.25091
5.22354
5.21537
5.21013
1
1
1
1
1
1
1
1
1
1
1
1
1
1
1
1
1
1
1
1
1
1
1
1
1
1
1
1
0.999078
1.01028
1.1326
1.57278
2.09683
2.92378
3.65472
4.45035
5.00233
5.03884
5.10436
5.094
5.10194
5.1172
5.12799
5.1347
5.16283
5.20881
5.24935
5.26175
5.26316
5.26759
5.23815
5.14812
5.09927
5.0983
5.1165
5.15832
5.22255
5.2808
5.30308
5.31184
5.3156
5.31862
5.30441
5.26084
5.211
5.17843
5.17686
5.18393
5.19213
5.20096
5.22805
5.27127
5.30938
5.32069
5.31223
5.28155
5.25405
5.24669
5.23349
5.226
1
1
1
1
1
1
1
1
1
1
1
1
1
1
1
1
1
1
1
1
1
1
1
1
1
1
1
1
1
0.999999
1
0.999116
1.00466
1.09184
1.38803
1.86322
2.6977
3.50883
4.42677
4.91449
5.14817
5.24305
5.22755
5.17813
5.16024
5.16444
5.19841
5.24229
5.26547
5.27002
5.25924
5.21976
5.16332
5.12973
5.13052
5.14651
5.17113
5.18955
5.20379
5.22644
5.26303
5.29757
5.2996
5.29153
5.28621
5.26836
5.2432
5.22426
5.20983
5.20666
5.21225
5.2258
5.2417
5.2503
5.24253
5.23483
5.23791
5.24955
5.26277
5.26572
1
1
1
1
1
1
1
1
1
1
1
1
1
1
1
1
1
1
1
1
1
1
1
1
1
1
1
1
1
1
1
1
0.999999
1
0.999398
1.0015
1.07728
1.35887
1.79241
2.60085
3.40928
4.43326
4.81053
4.8426
4.91156
4.9247
4.96889
5.07549
5.16233
5.23105
5.2801
5.27505
5.26013
5.25652
5.25635
5.23755
5.18517
5.1467
5.13794
5.14423
5.15925
5.18904
5.24614
5.28213
5.29184
5.29844
5.31793
5.32103
5.30264
5.25602
5.21048
5.20031
5.20252
5.20189
5.19653
5.19262
5.1979
5.22518
5.2779
5.29528
1
1
1
1
1
1
1
1
1
1
1
1
1
1
1
1
1
1
1
1
1
1
1
1
1
1
1
1
1
1
1
1
1
1
1
1
1
0.99944
1.00165
1.07276
1.27942
1.75681
2.57466
3.41448
4.369
4.76484
4.93578
5.037
5.05964
5.12195
5.22514
5.29056
5.30468
5.31361
5.32749
5.33826
5.30504
5.24026
5.15922
5.11822
5.12746
5.1486
5.1663
5.18386
5.21917
5.28365
5.31974
5.32727
5.31614
5.29203
5.27156
5.24765
5.2272
5.20308
5.1866
5.18253
5.19062
5.21626
5.24822
5.281
1
1
1
1
1
1
1
1
1
1
1
1
1
1
1
1
1
1
1
1
1
1
1
1
1
1
1
1
1
1
1
1
1
1
1
1
1
1
1
1
0.999532
1.00244
1.0854
1.28981
1.75143
2.59614
3.75967
4.5837
4.62178
4.7477
4.92761
5.044
5.09443
5.17997
5.28189
5.33946
5.3333
5.30546
5.27229
5.23727
5.20881
5.1853
5.16275
5.15942
5.16624
5.18587
5.2159
5.24942
5.25569
5.25749
5.26646
5.28779
5.29381
5.28356
5.25425
5.21442
5.20281
5.21336
5.23441
5.25047
1
1
1
1
1
1
1
1
1
1
1
1
1
1
1
1
1
1
1
1
1
1
1
1
1
1
1
1
1
1
1
1
1
1
1
1
1
1
1
1
1
0.999993
1.00001
0.99969
1.00489
1.0968
1.37158
2.03474
2.85324
3.78486
4.5009
4.74423
4.83747
4.87421
4.97813
5.19702
5.30564
5.31315
5.31525
5.30249
5.32612
5.33899
5.30373
5.24264
5.19135
5.16273
5.15573
5.15661
5.1568
5.15945
5.19646
5.27465
5.30168
5.29998
5.29501
5.27952
5.26593
5.25731
5.24893
5.23556
1
1
1
1
1
1
1
1
1
1
1
1
1
1
1
1
1
1
1
1
1
1
1
1
1
1
1
1
1
1
1
1
1
1
1
1
1
1
1
1
1
1
1
0.999997
0.999989
1.00006
1.00005
1.02238
1.14596
1.4074
2.11885
3.28234
4.53133
4.65249
4.73417
4.94944
5.0777
5.04855
5.06991
5.16381
5.30155
5.36131
5.34416
5.32126
5.30101
5.26207
5.20178
5.15221
5.12939
5.12827
5.15669
5.21446
5.2676
5.2925
5.29136
5.28367
5.28936
5.29977
5.29344
5.26242
1
1
1
1
1
1
1
1
1
1
1
1
1
1
1
1
1
1
1
1
1
1
1
1
1
1
1
1
1
1
1
1
1
1
1
1
1
1
1
1
1
1
1
1
1
1
0.999999
1.00001
0.999936
1.00074
1.04338
1.25465
1.94431
2.8371
3.66296
4.57688
4.94116
4.8717
4.80786
4.86013
5.06812
5.27669
5.31587
5.32649
5.3395
5.34422
5.33942
5.28398
5.22379
5.18544
5.18519
5.20757
5.21675
5.21854
5.21381
5.22294
5.25207
5.27676
5.27598
5.26233
1
1
1
1
1
1
1
1
1
1
1
1
1
1
1
1
1
1
1
1
1
1
1
1
1
1
1
1
1
1
1
1
1
1
1
1
1
1
1
1
1
1
1
1
1
1
1
1
0.999998
0.999997
0.999964
1.00023
1.01946
1.16499
1.42982
2.11783
3.35552
4.67311
4.80235
4.81477
4.98599
5.13081
5.09941
5.03376
5.08864
5.21665
5.30326
5.29465
5.2686
5.27166
5.28964
5.2918
5.25991
5.20043
5.17768
5.17947
5.20316
5.23691
5.24608
5.25244
1
1
1
1
1
1
1
1
1
1
1
1
1
1
1
1
1
1
1
1
1
1
1
1
1
1
1
1
1
1
1
1
1
1
1
1
1
1
1
1
1
1
1
1
1
1
1
1
1
1
0.999999
0.999998
1.00002
1.00008
1.00203
1.04533
1.28735
2.23875
3.30265
4.12983
4.87149
5.15542
5.115
4.91789
4.89506
4.97433
5.13703
5.23939
5.26117
5.30005
5.34549
5.36972
5.34369
5.28609
5.23289
5.20832
5.21209
5.22371
5.22861
5.22208
1
1
1
1
1
1
1
1
1
1
1
1
1
1
1
1
1
1
1
1
1
1
1
1
1
1
1
1
1
1
1
1
1
1
1
1
1
1
1
1
1
1
1
1
1
1
1
1
1
1
1
1
1
0.999999
0.999999
0.999954
1.00127
1.05978
1.38042
1.8623
2.75877
4.06886
4.9848
5.01137
5.01705
5.09804
5.13971
5.14115
5.08953
5.08981
5.1792
5.29241
5.31028
5.25884
5.23801
5.242
5.26662
5.27791
5.26252
5.22062
1
1
1
1
1
1
1
1
1
1
1
1
1
1
1
1
1
1
1
1
1
1
1
1
1
1
1
1
1
1
1
1
1
1
1
1
1
1
1
1
1
1
1
1
1
1
1
1
1
1
1
1
1
1
1
0.999998
0.999994
1.00001
1.00203
1.02113
1.16172
1.65791
2.94272
4.11521
4.71608
5.13181
5.24717
5.25276
5.14843
5.05896
5.07787
5.12078
5.17587
5.17572
5.17578
5.23886
5.30806
5.32908
5.31459
5.2704
1
1
1
1
1
1
1
1
1
1
1
1
1
1
1
1
1
1
1
1
1
1
1
1
1
1
1
1
1
1
1
1
1
1
1
1
1
1
1
1
1
1
1
1
1
1
1
1
1
1
1
1
1
1
1
1
1
1
0.999999
0.999975
1.00033
1.01399
1.28667
2.05084
2.86649
3.88171
4.94961
5.25875
5.22288
5.24383
5.31657
5.26291
5.18808
5.13317
5.09025
5.11394
5.2004
5.27799
5.27418
5.25631
1
1
1
1
1
1
1
1
1
1
1
1
1
1
1
1
1
1
1
1
1
1
1
1
1
1
1
1
1
1
1
1
1
1
1
1
1
1
1
1
1
1
1
1
1
1
1
1
1
1
1
1
1
1
1
1
1
1
1
0.999998
0.999997
0.999976
1.0027
1.03487
1.2649
1.79879
2.95831
4.12527
4.72761
5.11273
5.29451
5.32794
5.31215
5.26789
5.18509
5.16741
5.19257
5.20334
5.20532
5.20409
1
1
1
1
1
1
1
1
1
1
1
1
1
1
1
1
1
1
1
1
1
1
1
1
1
1
1
1
1
1
1
1
1
1
1
1
1
1
1
1
1
1
1
1
1
1
1
1
1
1
1
1
1
1
1
1
1
1
1
1
1
0.999997
1
0.999982
1.00213
1.01984
1.25062
2.22632
3.50336
4.13318
4.79876
5.24783
5.29664
5.29296
5.28497
5.32369
5.36214
5.32835
5.24906
5.19703
1
1
1
1
1
1
1
1
1
1
1
1
1
1
1
1
1
1
1
1
1
1
1
1
1
1
1
1
1
1
1
1
1
1
1
1
1
1
1
1
1
1
1
1
1
1
1
1
1
1
1
1
1
1
1
1
1
1
1
1
1
1
1
0.999998
0.999999
0.999984
1.00356
1.06952
1.55425
2.45729
3.55534
4.63829
4.83275
4.89886
5.05069
5.24142
5.35136
5.34505
5.28821
5.24749
1
1
1
1
1
1
1
1
1
1
1
1
1
1
1
1
1
1
1
1
1
1
1
1
1
1
1
1
1
1
1
1
1
1
1
1
1
1
1
1
1
1
1
1
1
1
1
1
1
1
1
1
1
1
1
1
1
1
1
1
1
1
1
1
1
0.999999
0.999992
1.00019
1.01391
1.12263
1.54862
2.73854
4.46408
4.69737
4.81486
5.00087
5.24685
5.25694
5.17577
5.19622
1
1
1
1
1
1
1
1
1
1
1
1
1
1
1
1
1
1
1
1
1
1
1
1
1
1
1
1
1
1
1
1
1
1
1
1
1
1
1
1
1
1
1
1
1
1
1
1
1
1
1
1
1
1
1
1
1
1
1
1
1
1
1
1
1
1
0.999999
0.999999
0.999993
1.00049
1.01776
1.18223
2.14108
3.63278
4.52378
5.15318
5.23512
5.18329
5.06921
5.08701
1
1
1
1
1
1
1
1
1
1
1
1
1
1
1
1
1
1
1
1
1
1
1
1
1
1
1
1
1
1
1
1
1
1
1
1
1
1
1
1
1
1
1
1
1
1
1
1
1
1
1
1
1
1
1
1
1
1
1
1
1
1
1
1
1
1
1
1
0.999999
0.999998
1
1.00238
1.08628
1.74256
2.76481
4.06629
5.06242
5.22619
5.21829
5.20913
1
1
1
1
1
1
1
1
1
1
1
1
1
1
1
1
1
1
1
1
1
1
1
1
1
1
1
1
1
1
1
1
1
1
1
1
1
1
1
1
1
1
1
1
1
1
1
1
1
1
1
1
1
1
1
1
1
1
1
1
1
1
1
1
1
1
1
1
1
1
1
0.999997
1.00079
1.02784
1.29514
1.98212
3.483
4.42688
4.91471
5.24037
1
1
1
1
1
1
1
1
1
1
1
1
1
1
1
1
1
1
1
1
1
1
1
1
1
1
1
1
1
1
1
1
1
1
1
1
1
1
1
1
1
1
1
1
1
1
1
1
1
1
1
1
1
1
1
1
1
1
1
1
1
1
1
1
1
1
1
1
1
1
1
0.999999
0.999997
1.00004
1.00499
1.05621
1.48049
2.98916
4.22257
4.94175
1
1
1
1
1
1
1
1
1
1
1
1
1
1
1
1
1
1
1
1
1
1
1
1
1
1
1
1
1
1
1
1
1
1
1
1
1
1
1
1
1
1
1
1
1
1
1
1
1
1
1
1
1
1
1
1
1
1
1
1
1
1
1
1
1
1
1
1
1
1
1
1
1
1
0.999995
1.00035
1.01516
1.38378
2.66734
4.31647
1
1
1
1
1
1
1
1
1
1
1
1
1
1
1
1
1
1
1
1
1
1
1
1
1
1
1
1
1
1
1
1
1
1
1
1
1
1
1
1
1
1
1
1
1
1
1
1
1
1
1
1
1
1
1
1
1
1
1
1
1
1
1
1
1
1
1
1
1
1
1
1
1
1
0.999999
0.999999
1.00009
1.01938
1.23071
2.7539
1
1
1
1
1
1
1
1
1
1
1
1
1
1
1
1
1
1
1
1
1
1
1
1
1
1
1
1
1
1
1
1
1
1
1
1
1
1
1
1
1
1
1
1
1
1
1
1
1
1
1
1
1
1
1
1
1
1
1
1
1
1
1
1
1
1
1
1
1
1
1
1
1
1
1
1
1
1.00013
1.00479
1.44925
1
1
1
1
1
1
1
1
1
1
1
1
1
1
1
1
1
1
1
1
1
1
1
1
1
1
1
1
1
1
1
1
1
1
1
1
1
1
1
1
1
1
1
1
1
1
1
1
1
1
1
1
1
1
1
1
1
1
1
1
1
1
1
1
1
1
1
1
1
1
1
1
1
1
1
1
1
1
1.00002
1.04446
1
1
1
1
1
1
1
1
1
1
1
1
1
1
1
1
1
1
1
1
1
1
1
1
1
1
1
1
1
1
1
1
1
1
1
1
1
1
1
1
1
1
1
1
1
1
1
1
1
1
1
1
1
1
1
1
1
1
1
1
1
1
1
1
1
1
1
1
1
1
1
1
1
1
1
1
1
1
1
1.00213
1
1
1
1
1
1
1
1
1
1
1
1
1
1
1
1
1
1
1
1
1
1
1
1
1
1
1
1
1
1
1
1
1
1
1
1
1
1
1
1
1
1
1
1
1
1
1
1
1
1
1
1
1
1
1
1
1
1
1
1
1
1
1
1
1
1
1
1
1
1
1
1
1
1
1
1
1
1
1
1.00006
1
1
1
1
1
1
1
1
1
1
1
1
1
1
1
1
1
1
1
1
1
1
1
1
1
1
1
1
1
1
1
1
1
1
1
1
1
1
1
1
1
1
1
1
1
1
1
1
1
1
1
1
1
1
1
1
1
1
1
1
1
1
1
1
1
1
1
1
1
1
1
1
1
1
1
1
1
1
1
1
1
1
1
1
1
1
1
1
1
1
1
1
1
1
1
1
1
1
1
1
1
1
1
1
1
1
1
1
1
1
1
1
1
1
1
1
1
1
1
1
1
1
1
1
1
1
1
1
1
1
1
1
1
1
1
1
1
1
1
1
1
1
1
1
1
1
1
1
1
1
1
1
1
1
1
1
1
1
1
1
1
1
1
1
1
1
1
1
1
1
1
1
1
1
1
1
1
1
1
1
1
1
1
1
1
1
1
1
1
1
1
1
1
1
1
1
1
1
1
1
1
1
1
1
1
1
1
1
1
1
1
1
1
1
1
1
1
1
1
1
1
1
1
1
1
1
1
1
1
1
1
1
1
1
1
1
1
1
1
1
1
1
1
1
1
1
1
1
1
1
1
1
1
1
1
1
1
1
1
1
1
1
1
1
1
1
1
1
1
1
1
1
1
1
1
1
1
1
1
1
1
1
1
1
1
1
1
1
1
1
1
1
1
1
1
1
1
1
1
1
1
1
1
1
1
1
1
1
1
1
1
1
1
1
1
1
1
1
1
1
1
1
1
1
1
1
1
1
1
1
1
1
1
1
1
1
1
1
1
1
1
1
1
1
1
1
1
1
1
1
1
1
1
1
1
1
1
1
1
1
1
1
1
1
1
1
1
1
1
1
1
1
1
1
1
1
1
1
1
1
1
1
1
1
1
1
1
1
1
1
1
1
1
1
1
1
1
1
1
1
1
1
1
1
1
1
1
1
1
1
1
1
1
1
1
1
1
1
1
1
1
1
1
1
1
1
1
1
1
1
1
1
1
1
1
1
1
1
1
1
1
1
1
1
1
1
1
1
1
1
1
1
1
1
1
1
1
1
1
1
1
1
1
1
1
1
1
1
1
1
1
1
1
1
1
1
1
1
1
1
)
;

boundaryField
{
    inlet
    {
        type            fixedValue;
        value           uniform 1;
    }
    outlet
    {
        type            zeroGradient;
    }
    bottom
    {
        type            symmetryPlane;
    }
    top
    {
        type            symmetryPlane;
    }
    obstacle
    {
        type            zeroGradient;
    }
    defaultFaces
    {
        type            empty;
    }
}


// ************************************************************************* //
