/*--------------------------------*- C++ -*----------------------------------*\
| =========                 |                                                 |
| \\      /  F ield         | OpenFOAM: The Open Source CFD Toolbox           |
|  \\    /   O peration     | Version:  2206                                  |
|   \\  /    A nd           | Website:  www.openfoam.com                      |
|    \\/     M anipulation  |                                                 |
\*---------------------------------------------------------------------------*/
FoamFile
{
    version     2.0;
    format      ascii;
    arch        "LSB;label=32;scalar=64";
    class       volScalarField;
    location    "0.1";
    object      T;
}
// * * * * * * * * * * * * * * * * * * * * * * * * * * * * * * * * * * * * * //

dimensions      [0 0 0 1 0 0 0];

internalField   nonuniform List<scalar> 
75
(
1
1
1
1
1
1
1
1
1
1
1
1
1
1
1
1
1
1
1
1
1
1
1
1
1
1.07578
1.17852
1.2878
1.38945
1.48636
1.56184
1.57009
1.55147
1.50874
1.44557
1.00242
1.01577
1.0499
1.11561
1.19666
1.2824
1.36017
1.38722
1.4084
1.42522
1.00001
0.999997
1.00042
1.00459
1.02317
1.08395
1.21157
1.36646
1.41951
1.44511
1
0.999999
0.999998
0.999996
1.00005
1.0033
1.03163
1.16976
1.31496
1.43475
1
1
0.999999
0.999997
0.999993
0.99996
1.00043
1.01755
1.11482
1.46197
)
;

boundaryField
{
    inlet
    {
        type            fixedValue;
        value           uniform 1;
    }
    outlet
    {
        type            zeroGradient;
    }
    bottom
    {
        type            symmetryPlane;
    }
    top
    {
        type            symmetryPlane;
    }
    obstacle
    {
        type            zeroGradient;
    }
    defaultFaces
    {
        type            empty;
    }
}


// ************************************************************************* //
