/*--------------------------------*- C++ -*----------------------------------*\
| =========                 |                                                 |
| \\      /  F ield         | OpenFOAM: The Open Source CFD Toolbox           |
|  \\    /   O peration     | Version:  2206                                  |
|   \\  /    A nd           | Website:  www.openfoam.com                      |
|    \\/     M anipulation  |                                                 |
\*---------------------------------------------------------------------------*/
FoamFile
{
    version     2.0;
    format      ascii;
    arch        "LSB;label=32;scalar=64";
    class       volScalarField;
    location    "0.14";
    object      T;
}
// * * * * * * * * * * * * * * * * * * * * * * * * * * * * * * * * * * * * * //

dimensions      [0 0 0 1 0 0 0];

internalField   nonuniform List<scalar> 
4800
(
1
1
1
1
1
1
1
1
1
1
1
1
1
1
1
1
1
1
1
1
1
1
1
1
1
1
1
1
1
1
1
1
1
1
1
1
1
1
1
1
1
1
1
1
1
1
1
1
1
1
1
1
1
1
1
1
1
1
1
1
1
1
1
1
1
1
1
1
1
1
1
1
1
1
1
1
1
1
1
1
1
1
1
1
1
1
1
1
1
1
1
1
1
1
1
1
1
1
1
1
1
1
1
1
1
1
1
1
1
1
1
1
1
1
1
1
1
1
1
1
1
1
1
1
1
1
1
1
1
1
1
1
1
1
1
1
1
1
1
1
1
1
1
1
1
1
1
1
1
1
1
1
1
1
1
1
1
1
1
1
1
1
1
1
1
1
1
1
1
1
1
1
1
1
1
1
1
1
1
1
1
1
1
1
1
1
1
1
1
1
1
1
1
1
1
1
1
1
1
1
1
1
1
1
1
1
1
1
1
1
1
1
1
1
1
1
1
1
1
1
1
1
1
1
1
1
1
1
1
1
1
1
1
1
1
1
1
1
1
1
1
1
1
1
1
1
1
1
1
1
1
1
1
1
1
1
1
1
1
1
1
1
1
1
1
1
1
1
1
1
1
1
1
1
1
1
1
1
1
1
1
1
1
1
1
1
1
1
1
1
1
1
1
1
1
1
1
1
1
1
1
1
1
1
1
1
1
1
1
1
1
1
1
1
1
1
1
1
1
1
1
1
1
1
1
1
1
1
1
1
1
1
1
1
1
1
1
1
1
1
1
1
1
1
1
1
1
1
1
1
1
1
1
1
1
1
1
1
1
1
1
1
1
1
1
1
1
1
1
1
1
1
1
1
1
1
1
1
1
1
1
1
1
1
1
1
1
1
1
1
1
1
1
1
1
1
1
1
1
1
1
1
1
1
1
1
1
1
1
1
1
1
1
1
1
1
1
1
1
1
1
1
1
1
1
1
1
1
1
1
1
1
1
1
1
1
1
1
1
1
1
1
1
1
1
1
1
1
1
1
1
1
1
1
1
1
1
1
1
1
1
1
1
1
1
1
1
1
1
1
1
1
1
1
1
1
1
1
1
1
1
1
1
1
1
1
1
1
1
1
1
1
1
1
1
1
1
1
1
1
1
1
1
1
1
1
1
1
1
1
1
1
1
1
1
1
1
1
1
1
1
1
1
1
1
1
1
1
1
1
1
1
1
1
1
1
1
1
1
1
1
1
1
1
1
1
1
1
1
1
1
1
1
1
1
1
1
1
1
1
1
1
1
1
1
1
1
1
1
1
1
1
1
1
1
1
1
1
1
1
1
1
1
1
1
1
1
1
1
1
1
1
1
1
1
1
1
1
1
1
1
1
1
1
1
1
1
1
1
1
1
1
1
1
1
1
1
1
1
1
1
1
1
1
1
1
1
1
1
1
1
1
1
1
1
1
1
1
1
1
1
1
1
1
1
1
1
1
1
1
1
1
1
1
1
1
1
1
1
1
1
1
1
1
1
1
1
1
1
1
1
1
1
1
1
1
1
1
1
1
1
1
1
1
1
1
1
1
1
1
1
1
1
1
1
1
1
1
1
1
1
1
1
1
1
1
1
1
1
1
1
1
1
1
1
1
1
1
1
1
1
1
1
1
1
1
1
1
1
1
1
1
1
1
1
1
1
1
1
1
1
1
1
1
1
1
1
1
1
1
1
1
1
1
1
1
1
1
1
1
1
1
1
1
1
1
1
1
1
1
1
1
1
1
1
1
1
1
1
1
1
1
1
1
1
1
1
1
1
1
1
1
1
1
1
1
1
1
1
1
1
1
1
1
1
1
1
1
1
1
1
1
1
1
1
1
1
1
1
1
1
1
1
1
1
1
1
1
1
1
1
1
1
1
1
1
1
1
1
1
1
1
1
1
1
1
1
1
1
1
1
1
1
1
1
1
1
1
1
1
1
1
1
1
1
1
1
1
1
1
1
1
1
1
1
1
1
1
1
1
1
1
1
1
1
1
1
1
1
1
1
1
1
1
1
1
1
1
1
1
1
1
1
1
1
1
1
1
1
1
1
1
1
1
1
1
1
1
1
1
1
1
1
1
1
1
1
1
1
1
1
1
1
1
1
1
1
1
1
1
1
1
1
1
1
1
1
1
1
1
1
1
1
1
1
1
1
1
1
1
1
1
1
1
1
1
1
1
1
1
1
1
1
1
1
1
1
1
1
1
1
1
1
1
1
1
1
1
1
1
1
1
1
1
1
1
1
1
1
1
1
1
1
1
1
1
1
1
1
1
1
1
1
1
1
1
1
1
1
1
1
1
1
1
1
1
1
1
1
1
1
1
1
1
1
1
1
1
1
1
1
1
1
1
1
1
1
1
1
1
1
1
1
1
1
1
1
1
1
1
1
1
1
1
1
1
1
1
1
1
1
1
1
1
1
1
1
1
1
1
1
1
1
1
1
1
1
1
1
1
1
1
1
1
1
1
1
1
1
1
1
1
1
1
1
1
1
1
1
1
1
1
1
1
1
1
1
1
1
1
1
1
1
1
1
1
1
1
1
1
1
1
1
1
1
1
1
1
1
1
1
1
1
1
1
1
1
1
1
1
1
1
1
1
1
1
1
1
1
1
1
1
1
1
1
1
1
1
1
1
1
1
1
1
1
1
1
1
1
1
1
1
1
1
1
1
1
1
1
1
1
1
1
1
1
1
1
1
1
1
1
1
1
1
1
1
1
1
1
1
1
1
1
1
1
1
1
1
1
1
1
1
1
1
1
1
1
1
1
1
1
1
1
1
1
1
1
1
1
1
1
1
1
1
1
1
1
1
1
1
1
1
1
1
1
1
1
1
1
1
1
1
1
1
1
1
1
1
1
1
1
1
1
1
1
1
1
1
1
1
1
1
1
1
1
1
1
1
1
1
1
1
1
1
1
1
1
1
1
1
1
1
1
1
1
1
1
1
1
1
1
1
1
1
1
1
1
1
1
1
1
1
1
1
1
1
1
1
1
1
1
1
1
1
1
1
1
1
1
1
1
1
1
1
1
1
1
1
1
1
1
1
1
1
1
1
1
1
1
1
1
1
1
1
1
1
1
1
1
1
1
1
1
1
1
1
1
1
1
1
1
1
1
1
1
1
1
1
1
1
1
1
1
1
1
1
1
1
1
1
1
1
1
1
1
1
1
1
1
1
1
1
1
1
1
1
1
1
1
1
1
1
1
1
1
1
1
1
1
1
1
1
1
1
1
1
1
1
1
1
1
1
1
1
1
1
1
1
1
1
1
1
1
1
1
1
1
1
1
1
1
1
1
1
1
1
1
1
1
1
1
1
1
1
1
1
1
1
1
1
1
1
1
1
1
1
1
1
1
1
1
1
1
1
1
1
1
1
1
1
1
1
1
1
1
1
1
1
1
1
1
1
1
1
1
1
1
1
1
1
1
1
1
1
1
1
1
1
1
1
1
1
1
1
1
1
1
1
1
1
1
1
1
1
1
1
1
1
1
1
1
1
1
1
1
1
1
1
1
1
1
1
1
1
1
1
1
1
1
1
1
1
1
1
1
1
1
1
1
1
1
1
1
1
1
1
1
1
1
1
1
1
1
1
1
1
1
1
1
1
1.07058
1.16503
1.26297
1.34936
1.4387
1.54591
1.62942
1.68134
1.73757
1.82397
1.87253
1.87266
1.88483
1.89371
1.88739
1.86577
1.82641
1.77616
1.72805
1.70814
1.6946
1.68281
1.67248
1.66778
1.66818
1.67116
1.67884
1.68871
1.69915
1.70657
1.71032
1.71091
1.71003
1.70907
1.7101
1.7137
1.71611
1.7161
1.71553
1.71501
1.71596
1.71907
1.72167
1.72279
1.72274
1.7224
1.72191
1.72126
1.72013
1.71841
1.71681
1.71634
1.71698
1.71961
1.7237
1.72652
1.72807
1.72861
1.72849
1.72735
1.7255
1.72327
1.72081
1.71902
1.71837
1.71859
1.71976
1.72147
1.72351
1.72606
1.7284
1.73056
1.73229
1.73296
1.73281
1.73196
1.73035
1.72795
1.72476
1.72386
1
0.999758
1.00013
1.01723
1.03346
1.05973
1.13948
1.23168
1.28728
1.35482
1.44926
1.51437
1.54716
1.6056
1.63841
1.66214
1.68081
1.70575
1.73837
1.74938
1.74804
1.74714
1.74595
1.74004
1.72655
1.71401
1.71096
1.70839
1.70575
1.704
1.70542
1.7092
1.71171
1.71339
1.71674
1.72032
1.72141
1.7214
1.72118
1.72032
1.72002
1.72088
1.72156
1.72223
1.72389
1.72589
1.72629
1.72616
1.72584
1.72511
1.72424
1.72323
1.72297
1.72363
1.72415
1.72434
1.72497
1.72612
1.72719
1.72779
1.72782
1.72779
1.72772
1.72742
1.72714
1.72714
1.727
1.72655
1.72637
1.72644
1.72684
1.72763
1.72876
1.73009
1.73094
1.7311
1.73081
1.72962
1.72871
1.72879
1
1
1
1
0.999999
0.999999
1
1
0.999857
1.00348
1.02519
1.08969
1.15902
1.27359
1.4228
1.54601
1.69254
1.75691
1.80251
1.82975
1.82436
1.81616
1.8086
1.79965
1.78573
1.75839
1.73794
1.72723
1.72109
1.72074
1.72198
1.72489
1.72746
1.73046
1.73392
1.7367
1.73691
1.73682
1.73652
1.73606
1.73517
1.73412
1.73309
1.73235
1.73258
1.73405
1.73629
1.73809
1.7388
1.73851
1.73715
1.73633
1.73578
1.73485
1.73326
1.73195
1.7305
1.72928
1.72926
1.73051
1.73312
1.7358
1.7375
1.7382
1.7383
1.73821
1.73768
1.73632
1.73437
1.73295
1.73205
1.73136
1.73066
1.73014
1.73042
1.73157
1.73274
1.73378
1.73471
1.73523
1
1
1
1
1
1
1
1
1
1
1
1
0.999933
0.999627
1.01414
1.06649
1.20224
1.40516
1.55126
1.68686
1.73441
1.76854
1.79174
1.7868
1.78258
1.79237
1.7928
1.78804
1.7753
1.76976
1.76495
1.76071
1.75286
1.74666
1.74304
1.74337
1.74584
1.74922
1.75272
1.75441
1.75452
1.75405
1.75223
1.74885
1.74658
1.74633
1.74702
1.74899
1.75119
1.75335
1.75451
1.75446
1.75344
1.75147
1.74933
1.74689
1.74381
1.74071
1.73936
1.73954
1.74017
1.7419
1.74483
1.748
1.75008
1.75038
1.74966
1.74775
1.74479
1.74127
1.73929
1.73801
1.73693
1.73657
1.73683
1.7372
1.73763
1.73816
1.73877
1.74004
1
1
1
1
1
1
1
1
1
1
1
1
1
1
1
1
0.999654
1.00536
1.03728
1.14023
1.3367
1.47865
1.61677
1.69891
1.76214
1.82602
1.82948
1.82616
1.81994
1.81226
1.80439
1.78717
1.76988
1.75909
1.75685
1.75764
1.76049
1.76398
1.76663
1.76824
1.76838
1.76803
1.76656
1.76317
1.76123
1.76144
1.76189
1.76212
1.7624
1.7634
1.76516
1.76618
1.76639
1.76603
1.76414
1.76139
1.75875
1.75628
1.754
1.75312
1.75308
1.753
1.75329
1.75433
1.75599
1.75741
1.7577
1.75705
1.7547
1.75224
1.7514
1.75093
1.75006
1.74924
1.74863
1.74807
1.74769
1.74723
1.74664
1.74615
1
1
1
1
1
1
1
1
1
1
1
1
1
1
1
1
1
1
1
0.999757
1.00191
1.01679
1.08672
1.26623
1.41687
1.56519
1.65537
1.72498
1.78428
1.78838
1.78845
1.79109
1.78512
1.7763
1.77397
1.7742
1.7743
1.77643
1.77495
1.77247
1.76992
1.76756
1.76739
1.7677
1.76817
1.76967
1.77156
1.7717
1.77107
1.76953
1.76865
1.7686
1.76928
1.77129
1.77292
1.77302
1.77252
1.77189
1.77081
1.76863
1.76615
1.7648
1.76336
1.76245
1.76197
1.76167
1.76163
1.76175
1.76207
1.76262
1.76338
1.76395
1.76386
1.76325
1.76222
1.76107
1.75975
1.75826
1.75659
1.75484
1
1
1
1
1
1
1
1
1
1
1
1
1
1
1
1
1
1
1
1
1
1
0.99991
1.00033
1.00808
1.05853
1.20947
1.35468
1.51433
1.61743
1.71362
1.78239
1.78494
1.78877
1.79041
1.78854
1.78421
1.77382
1.76254
1.75973
1.76109
1.76367
1.76669
1.77189
1.77657
1.77759
1.77668
1.77386
1.77132
1.76898
1.76737
1.76674
1.76677
1.76845
1.77301
1.77714
1.77857
1.77891
1.77894
1.77888
1.77747
1.77298
1.76933
1.76704
1.7663
1.7659
1.76563
1.76533
1.76561
1.76652
1.76825
1.77047
1.77197
1.77222
1.77168
1.77064
1.76936
1.76707
1.76417
1.76165
1
1
1
1
1
1
1
1
1
1
1
1
1
1
1
1
1
1
1
1
1
1
1
1
1
1
0.999925
1.00413
1.04733
1.17433
1.31031
1.47912
1.58504
1.68725
1.74776
1.75566
1.76126
1.75952
1.75536
1.75334
1.75639
1.76219
1.76697
1.77159
1.77359
1.7733
1.77278
1.7737
1.77353
1.76888
1.76458
1.7637
1.76404
1.76585
1.76853
1.77154
1.77465
1.77709
1.779
1.77976
1.7792
1.77818
1.77656
1.77439
1.77266
1.77133
1.77007
1.76917
1.7689
1.76934
1.77026
1.77148
1.77257
1.77283
1.77272
1.77266
1.77229
1.77073
1.76866
1.76664
1
1
1
1
1
1
1
1
1
1
1
1
1
1
1
1
1
1
1
1
1
1
1
1
1
1
1
1
1
0.999871
1.00237
1.03908
1.14803
1.28736
1.4568
1.57667
1.68996
1.73267
1.74797
1.75491
1.75633
1.75772
1.75946
1.75713
1.75673
1.75964
1.76318
1.76599
1.76765
1.76935
1.76908
1.767
1.76518
1.76433
1.76396
1.76475
1.7661
1.76722
1.76877
1.77062
1.77255
1.77397
1.77472
1.77587
1.77732
1.77746
1.77632
1.77363
1.77087
1.77004
1.77039
1.77085
1.77083
1.77039
1.7702
1.77037
1.77092
1.77147
1.77175
1.77138
1
1
1
1
1
1
1
1
1
1
1
1
1
1
1
1
1
1
1
1
1
1
1
1
1
1
1
1
1
1
1
1
0.999918
1.00242
1.04265
1.14842
1.27982
1.44368
1.56646
1.68413
1.71696
1.72092
1.73177
1.73247
1.73046
1.73542
1.74404
1.75205
1.75905
1.76229
1.76233
1.7629
1.76522
1.76753
1.76657
1.76216
1.75866
1.75796
1.75845
1.75949
1.7609
1.76293
1.76661
1.77137
1.77437
1.77525
1.77495
1.77387
1.7729
1.77202
1.77129
1.76999
1.76846
1.76776
1.76771
1.76837
1.76939
1.77001
1.77045
1.77203
1
1
1
1
1
1
1
1
1
1
1
1
1
1
1
1
1
1
1
1
1
1
1
1
1
1
1
1
1
1
1
1
1
0.999995
1.00001
1.00005
1.00281
1.04457
1.13834
1.29767
1.45536
1.58004
1.67736
1.7115
1.72076
1.72503
1.72783
1.73273
1.73822
1.74737
1.75219
1.75525
1.75867
1.76185
1.76292
1.7631
1.76164
1.75649
1.75302
1.75229
1.75293
1.75506
1.7574
1.76044
1.76332
1.76621
1.76778
1.76835
1.76885
1.77026
1.77195
1.77185
1.77051
1.76797
1.76591
1.76574
1.76688
1.76846
1.76942
1.77079
1
1
1
1
1
1
1
1
1
1
1
1
1
1
1
1
1
1
1
1
1
1
1
1
1
1
1
1
1
1
1
1
1
1
1
1
0.999999
0.999991
1.00014
1.00526
1.0616
1.16074
1.31661
1.4716
1.62579
1.7038
1.70643
1.70583
1.71458
1.717
1.72275
1.72861
1.73698
1.74796
1.75377
1.75341
1.75315
1.75378
1.75589
1.75696
1.7559
1.75299
1.75097
1.75128
1.75339
1.75411
1.75462
1.75612
1.75892
1.76327
1.76681
1.76711
1.76667
1.76648
1.76637
1.76608
1.76615
1.76651
1.76683
1.76802
1
1
1
1
1
1
1
1
1
1
1
1
1
1
1
1
1
1
1
1
1
1
1
1
1
1
1
1
1
1
1
1
1
1
1
1
1
1
1
1
1.00001
1.00046
1.01038
1.07521
1.211
1.39233
1.52189
1.63453
1.69345
1.70733
1.71666
1.71606
1.71493
1.7207
1.73096
1.73719
1.74063
1.74558
1.75001
1.75432
1.75546
1.75532
1.75461
1.75214
1.74958
1.74704
1.74579
1.7463
1.748
1.75182
1.75647
1.76002
1.76122
1.76168
1.76222
1.76294
1.76435
1.76511
1.76526
1.76543
1
1
1
1
1
1
1
1
1
1
1
1
1
1
1
1
1
1
1
1
1
1
1
1
1
1
1
1
1
1
1
1
1
1
1
1
1
1
1
1
1
0.999999
0.999995
1.00005
1.00177
1.03133
1.11567
1.25502
1.42756
1.58983
1.70391
1.71334
1.70943
1.71402
1.71484
1.71509
1.71575
1.72058
1.73001
1.74155
1.7466
1.74695
1.74807
1.7502
1.75176
1.75083
1.74634
1.74219
1.74161
1.74319
1.74775
1.75009
1.75083
1.75167
1.75368
1.75713
1.75987
1.76042
1.7609
1.762
1
1
1
1
1
1
1
1
1
1
1
1
1
1
1
1
1
1
1
1
1
1
1
1
1
1
1
1
1
1
1
1
1
1
1
1
1
1
1
1
1
1
1
1
0.999999
1
1.00031
1.00546
1.05783
1.19059
1.4031
1.54378
1.64562
1.69689
1.71726
1.7201
1.71576
1.71234
1.71518
1.7211
1.72713
1.7291
1.73372
1.74182
1.74721
1.74802
1.746
1.74549
1.74576
1.74594
1.7455
1.74429
1.74344
1.74377
1.74541
1.74871
1.7523
1.75391
1.75465
1.7561
1
1
1
1
1
1
1
1
1
1
1
1
1
1
1
1
1
1
1
1
1
1
1
1
1
1
1
1
1
1
1
1
1
1
1
1
1
1
1
1
1
1
1
1
1
1
1
0.99999
1.00007
1.00221
1.03842
1.15376
1.29231
1.45533
1.60952
1.71382
1.72399
1.72155
1.72848
1.72392
1.71904
1.7168
1.71671
1.72261
1.73131
1.73714
1.7386
1.73929
1.74146
1.74442
1.74692
1.74656
1.74334
1.74074
1.74072
1.74202
1.7443
1.74553
1.74644
1.74861
1
1
1
1
1
1
1
1
1
1
1
1
1
1
1
1
1
1
1
1
1
1
1
1
1
1
1
1
1
1
1
1
1
1
1
1
1
1
1
1
1
1
1
1
1
1
1
0.999999
1
0.999996
1.00003
1.00105
1.01144
1.08491
1.235
1.46293
1.60974
1.6899
1.71491
1.7268
1.73009
1.72843
1.72039
1.72028
1.72165
1.7234
1.72517
1.72432
1.72888
1.73931
1.74428
1.7438
1.74093
1.74019
1.74059
1.74126
1.74165
1.7415
1.7415
1.74286
1
1
1
1
1
1
1
1
1
1
1
1
1
1
1
1
1
1
1
1
1
1
1
1
1
1
1
1
1
1
1
1
1
1
1
1
1
1
1
1
1
1
1
1
1
1
1
1
1
1
1
1
0.999989
1.00034
1.0062
1.09033
1.27922
1.43319
1.54654
1.66721
1.72985
1.7356
1.73375
1.74014
1.73717
1.72814
1.72143
1.71994
1.72272
1.7307
1.73573
1.73577
1.73488
1.73503
1.73641
1.73828
1.74023
1.74016
1.74084
1.74202
1
1
1
1
1
1
1
1
1
1
1
1
1
1
1
1
1
1
1
1
1
1
1
1
1
1
1
1
1
1
1
1
1
1
1
1
1
1
1
1
1
1
1
1
1
1
1
1
1
1
1
1
0.999999
1
0.999991
1.00068
1.00892
1.06441
1.20447
1.39364
1.57444
1.67052
1.71525
1.73194
1.73388
1.73327
1.73237
1.73194
1.73209
1.73327
1.73216
1.72915
1.72628
1.72587
1.7276
1.73209
1.73652
1.73766
1.73834
1.73944
1
1
1
1
1
1
1
1
1
1
1
1
1
1
1
1
1
1
1
1
1
1
1
1
1
1
1
1
1
1
1
1
1
1
1
1
1
1
1
1
1
1
1
1
1
1
1
1
1
1
1
1
1
1
0.999999
1
0.999992
1.0003
1.00433
1.04544
1.23364
1.47327
1.58398
1.64614
1.70504
1.73155
1.73707
1.74035
1.74631
1.74888
1.74543
1.73616
1.72748
1.72379
1.72615
1.73101
1.73239
1.73278
1.73289
1.73442
1
1
1
1
1
1
1
1
1
1
1
1
1
1
1
1
1
1
1
1
1
1
1
1
1
1
1
1
1
1
1
1
1
1
1
1
1
1
1
1
1
1
1
1
1
1
1
1
1
1
1
1
1
1
1
1
0.999999
0.999999
0.999994
1.00026
1.00893
1.08326
1.27339
1.43907
1.59759
1.67041
1.69591
1.7142
1.73327
1.73997
1.73953
1.73348
1.73161
1.73297
1.73587
1.73717
1.73568
1.73287
1.73023
1.73075
1
1
1
1
1
1
1
1
1
1
1
1
1
1
1
1
1
1
1
1
1
1
1
1
1
1
1
1
1
1
1
1
1
1
1
1
1
1
1
1
1
1
1
1
1
1
1
1
1
1
1
1
1
1
1
1
1
1
0.999999
1
0.999998
1.00074
1.01428
1.07259
1.26141
1.52767
1.66673
1.68367
1.70024
1.71729
1.72409
1.71937
1.71966
1.73019
1.74138
1.74373
1.74351
1.73949
1.73565
1.73372
1
1
1
1
1
1
1
1
1
1
1
1
1
1
1
1
1
1
1
1
1
1
1
1
1
1
1
1
1
1
1
1
1
1
1
1
1
1
1
1
1
1
1
1
1
1
1
1
1
1
1
1
1
1
1
1
1
1
1
1
1
1
1.00001
1.00064
1.01616
1.12695
1.39033
1.57824
1.66714
1.71425
1.72047
1.7164
1.71408
1.71977
1.72674
1.73258
1.73636
1.73602
1.73562
1.73687
1
1
1
1
1
1
1
1
1
1
1
1
1
1
1
1
1
1
1
1
1
1
1
1
1
1
1
1
1
1
1
1
1
1
1
1
1
1
1
1
1
1
1
1
1
1
1
1
1
1
1
1
1
1
1
1
1
1
1
1
1
1
1
0.999999
1.00004
1.00257
1.05788
1.21879
1.4151
1.60135
1.70306
1.73876
1.73726
1.72742
1.7195
1.71857
1.72248
1.72573
1.7269
1.73232
1
1
1
1
1
1
1
1
1
1
1
1
1
1
1
1
1
1
1
1
1
1
1
1
1
1
1
1
1
1
1
1
1
1
1
1
1
1
1
1
1
1
1
1
1
1
1
1
1
1
1
1
1
1
1
1
1
1
1
1
1
1
1
1
1
0.999998
1.0005
1.00867
1.08129
1.25389
1.49646
1.70491
1.73663
1.73085
1.73581
1.73296
1.7291
1.72869
1.72934
1.73052
1
1
1
1
1
1
1
1
1
1
1
1
1
1
1
1
1
1
1
1
1
1
1
1
1
1
1
1
1
1
1
1
1
1
1
1
1
1
1
1
1
1
1
1
1
1
1
1
1
1
1
1
1
1
1
1
1
1
1
1
1
1
1
1
1
1
0.999999
1.00001
1.00088
1.01785
1.17086
1.44532
1.6152
1.69009
1.72181
1.73553
1.74255
1.7428
1.74206
1.7366
1
1
1
1
1
1
1
1
1
1
1
1
1
1
1
1
1
1
1
1
1
1
1
1
1
1
1
1
1
1
1
1
1
1
1
1
1
1
1
1
1
1
1
1
1
1
1
1
1
1
1
1
1
1
1
1
1
1
1
1
1
1
1
1
1
1
1
1
0.999999
1.00014
1.0067
1.08829
1.34162
1.54093
1.63969
1.706
1.7247
1.73509
1.74974
1.75001
1
1
1
1
1
1
1
1
1
1
1
1
1
1
1
1
1
1
1
1
1
1
1
1
1
1
1
1
1
1
1
1
1
1
1
1
1
1
1
1
1
1
1
1
1
1
1
1
1
1
1
1
1
1
1
1
1
1
1
1
1
1
1
1
1
1
1
1
1
1
1.00001
1.00201
1.03658
1.21207
1.44025
1.64426
1.68146
1.70138
1.72452
1.74036
1
1
1
1
1
1
1
1
1
1
1
1
1
1
1
1
1
1
1
1
1
1
1
1
1
1
1
1
1
1
1
1
1
1
1
1
1
1
1
1
1
1
1
1
1
1
1
1
1
1
1
1
1
1
1
1
1
1
1
1
1
1
1
1
1
1
1
1
1
1
1
1
1.00031
1.0126
1.09182
1.3529
1.62271
1.7072
1.70353
1.71113
1
1
1
1
1
1
1
1
1
1
1
1
1
1
1
1
1
1
1
1
1
1
1
1
1
1
1
1
1
1
1
1
1
1
1
1
1
1
1
1
1
1
1
1
1
1
1
1
1
1
1
1
1
1
1
1
1
1
1
1
1
1
1
1
1
1
1
1
1
1
1
1
0.999999
1.00005
1.00247
1.04861
1.29944
1.59277
1.68711
1.69908
1
1
1
1
1
1
1
1
1
1
1
1
1
1
1
1
1
1
1
1
1
1
1
1
1
1
1
1
1
1
1
1
1
1
1
1
1
1
1
1
1
1
1
1
1
1
1
1
1
1
1
1
1
1
1
1
1
1
1
1
1
1
1
1
1
1
1
1
1
1
1
1
1
1
1
1.00091
1.0353
1.22472
1.48358
1.67811
1
1
1
1
1
1
1
1
1
1
1
1
1
1
1
1
1
1
1
1
1
1
1
1
1
1
1
1
1
1
1
1
1
1
1
1
1
1
1
1
1
1
1
1
1
1
1
1
1
1
1
1
1
1
1
1
1
1
1
1
1
1
1
1
1
1
1
1
1
1
1
1
1
1
1
1
1.00049
1.01786
1.13177
1.55253
1
1
1
1
1
1
1
1
1
1
1
1
1
1
1
1
1
1
1
1
1
1
1
1
1
1
1
1
1
1
1
1
1
1
1
1
1
1
1
1
1
1
1
1
1
1
1
1
1
1
1
1
1
1
1
1
1
1
1
1
1
1
1
1
1
1
1
1
1
1
1
1
1
1
1
1
1
1.00019
1.00534
1.29503
1
1
1
1
1
1
1
1
1
1
1
1
1
1
1
1
1
1
1
1
1
1
1
1
1
1
1
1
1
1
1
1
1
1
1
1
1
1
1
1
1
1
1
1
1
1
1
1
1
1
1
1
1
1
1
1
1
1
1
1
1
1
1
1
1
1
1
1
1
1
1
1
1
1
1
1
1
1
1.00008
1.0617
1
1
1
1
1
1
1
1
1
1
1
1
1
1
1
1
1
1
1
1
1
1
1
1
1
1
1
1
1
1
1
1
1
1
1
1
1
1
1
1
1
1
1
1
1
1
1
1
1
1
1
1
1
1
1
1
1
1
1
1
1
1
1
1
1
1
1
1
1
1
1
1
1
1
1
1
1
1
1
1.00543
1
1
1
1
1
1
1
1
1
1
1
1
1
1
1
1
1
1
1
1
1
1
1
1
1
1
1
1
1
1
1
1
1
1
1
1
1
1
1
1
1
1
1
1
1
1
1
1
1
1
1
1
1
1
1
1
1
1
1
1
1
1
1
1
1
1
1
1
1
1
1
1
1
1
1
1
1
1
1
1.00027
1
1
1
1
1
1
1
1
1
1
1
1
1
1
1
1
1
1
1
1
1
1
1
1
1
1
1
1
1
1
1
1
1
1
1
1
1
1
1
1
1
1
1
1
1
1
1
1
1
1
1
1
1
1
1
1
1
1
1
1
1
1
1
1
1
1
1
1
1
1
1
1
1
1
1
1
1
1
1
1.00001
1
1
1
1
1
1
1
1
1
1
1
1
1
1
1
1
1
1
1
1
1
1
1
1
1
1
1
1
1
1
1
1
1
1
1
1
1
1
1
1
1
1
1
1
1
1
1
1
1
1
1
1
1
1
1
1
1
1
1
1
1
1
1
1
1
1
1
1
1
1
1
1
1
1
1
1
1
1
1
1
1
1
1
1
1
1
1
1
1
1
1
1
1
1
1
1
1
1
1
1
1
1
1
1
1
1
1
1
1
1
1
1
1
1
1
1
1
1
1
1
1
1
1
1
1
1
1
1
1
1
1
1
1
1
1
1
1
1
1
1
1
1
1
1
1
1
1
1
1
1
1
1
1
1
1
1
1
1
1
1
1
1
1
1
1
1
1
1
1
1
1
1
1
1
1
1
1
1
1
1
1
1
1
1
1
1
1
1
1
1
1
1
1
1
1
1
1
1
1
1
1
1
1
1
1
1
1
1
1
1
1
1
1
1
1
1
1
1
1
1
1
1
1
1
1
1
1
1
1
1
1
1
1
1
1
1
1
1
1
1
)
;

boundaryField
{
    inlet
    {
        type            fixedValue;
        value           uniform 1;
    }
    outlet
    {
        type            zeroGradient;
    }
    bottom
    {
        type            symmetryPlane;
    }
    top
    {
        type            symmetryPlane;
    }
    obstacle
    {
        type            zeroGradient;
    }
    defaultFaces
    {
        type            empty;
    }
}


// ************************************************************************* //
