/*--------------------------------*- C++ -*----------------------------------*\
| =========                 |                                                 |
| \\      /  F ield         | OpenFOAM: The Open Source CFD Toolbox           |
|  \\    /   O peration     | Version:  2206                                  |
|   \\  /    A nd           | Website:  www.openfoam.com                      |
|    \\/     M anipulation  |                                                 |
\*---------------------------------------------------------------------------*/
FoamFile
{
    version     2.0;
    format      ascii;
    arch        "LSB;label=32;scalar=64";
    class       volScalarField;
    location    "0.1";
    object      p;
}
// * * * * * * * * * * * * * * * * * * * * * * * * * * * * * * * * * * * * * //

dimensions      [1 -1 -2 0 0 0 0];

internalField   nonuniform List<scalar> 
4800
(
1
1
1
1
1
1
1
1
1
1
1
1
1
1
1
1
1
1
1
1
1
1
1
1
1
1
1
1
1
1
1
1
1
1
1
1
1
1
1
1
1
1
1
1
1
1
1
1
1
1
1
1
1
1
1
1
1
1
1
1
1
1
1
1
1
1
1
1
1
1
1
1
1
1
1
1
1
1
1
1
1
1
1
1
1
1
1
1
1
1
1
1
1
1
1
1
1
1
1
1
1
1
1
1
1
1
1
1
1
1
1
1
1
1
1
1
1
1
1
1
1
1
1
1
1
1
1
1
1
1
1
1
1
1
1
1
1
1
1
1
1
1
1
1
1
1
1
1
1
1
1
1
1
1
1
1
1
1
1
1
1
1
1
1
1
1
1
1
1
1
1
1
1
1
1
1
1
1
1
1
1
1
1
1
1
1
1
1
1
1
1
1
1
1
1
1
1
1
1
1
1
1
1
1
1
1
1
1
1
1
1
1
1
1
1
1
1
1
1
1
1
1
1
1
1
1
1
1
1
1
1
1
1
1
1
1
1
1
1
1
1
1
1
1
1
1
1
1
1
1
1
1
1
1
1
1
1
1
1
1
1
1
1
1
1
1
1
1
1
1
1
1
1
1
1
1
1
1
1
1
1
1
1
1
1
1
1
1
1
1
1
1
1
1
1
1
1
1
1
1
1
1
1
1
1
1
1
1
1
1
1
1
1
1
1
1
1
1
1
1
1
1
1
1
1
1
1
1
1
1
1
1
1
1
1
1
1
1
1
1
1
1
1
1
1
1
1
1
1
1
1
1
1
1
1
1
1
1
1
1
1
1
1
1
1
1
1
1
1
1
1
1
1
1
1
1
1
1
1
1
1
1
1
1
1
1
1
1
1
1
1
1
1
1
1
1
1
1
1
1
1
1
1
1
1
1
1
1
1
1
1
1
1
1
1
1
1
1
1
1
1
1
1
1
1
1
1
1
1
1
1
1
1
1
1
1
1
1
1
1
1
1
1
1
1
1
1
1
1
1
1
1
1
1
1
1
1
1
1
1
1
1
1
1
1
1
1
1
1
1
1
1
1
1
1
1
1
1
1
1
1
1
1
1
1
1
1
1
1
1
1
1
1
1
1
1
1
1
1
1
1
1
1
1
1
1
1
1
1
1
1
1
1
1
1
1
1
1
1
1
1
1
1
1
1
1
1
1
1
1
1
1
1
1
1
1
1
1
1
1
1
1
1
1
1
1
1
1
1
1
1
1
1
1
1
1
1
1
1
1
1
1
1
1
1
1
1
1
1
1
1
1
1
1
1
1
1
1
1
1
1
1
1
1
1
1
1
1
1
1
1
1
1
1
1
1
1
1
1
1
1
1
1
1
1
1
1
1
1
1
1
1
1
1
1
1
1
1
1
1
1
1
1
1
1
1
1
1
1
1
1
1
1
1
1
1
1
1
1
1
1
1
1
1
1
1
1
1
1
1
1
1
1
1
1
1
1
1
1
1
1
1
1
1
1
1
1
1
1
1
1
1
1
1
1
1
1
1
1
1
1
1
1
1
1
1
1
1
1
1
1
1
1
1
1
1
1
1
1
1
1
1
1
1
1
1
1
1
1
1
1
1
1
1
1
1
1
1
1
1
1
1
1
1
1
1
1
1
1
1
1
1
1
1
1
1
1
1
1
1
1
1
1
1
1
1
1
1
1
1
1
1
1
1
1
1
1
1
1
1
1
1
1
1
1
1
1
1
1
1
1
1
1
1
1
1
1
1
1
1
1
1
1
1
1
1
1
1
1
1
1
1
1
1
1
1
1
1
1
1
1
1
1
1
1
1
1
1
1
1
1
1
1
1
1
1
1
1
1
1
1
1
1
1
1
1
1
1
1
1
1
1
1
1
1
1
1
1
1
1
1
1
1
1
1
1
1
1
1
1
1
1
1
1
1
1
1
1
1
1
1
1
1
1
1
1
1
1
1
1
1
1
1
1
1
1
1
1
1
1
1
1
1
1
1
1
1
1
1
1
1
1
1
1
1
1
1
1
1
1
1
1
1
1
1
1
1
1
1
1
1
1
1
1
1
1
1
1
1
1
1
1
1
1
1
1
1
1
1
1
1
1
1
1
1
1
1
1
1
1
1
1
1
1
1
1
1
1
1
1
1
1
1
1
1
1
1
1
1
1
1
1
1
1
1
1
1
1
1
1
1
1
1
1
1
1
1
1
1
1
1
1
1
1
1
1
1
1
1
1
1
1
1
1
1
1
1
1
1
1
1
1
1
1
1
1
1
1
1
1
1
1
1
1
1
1
1
1
1
1
1
1
1
1
1
1
1
1
1
1
1
1
1
1
1
1
1
1
1
1
1
1
1
1
1
1
1
1
1
1
1
1
1
1
1
1
1
1
1
1
1
1
1
1
1
1
1
1
1
1
1
1
1
1
1
1
1
1
1
1
1
1
1
1
1
1
1
1
1
1
1
1
1
1
1
1
1
1
1
1
1
1
1
1
1
1
1
1
1
1
1
1
1
1
1
1
1
1
1
1
1
1
1
1
1
1
1
1
1
1
1
1
1
1
1
1
1
1
1
1
1
1
1
1
1
1
1
1
1
1
1
1
1
1
1
1
1
1
1
1
1
1
1
1
1
1
1
1
1
1
1
1
1
1
1
1
1
1
1
1
1
1
1
1
1
1
1
1
1
1
1
1
1
1
1
1
1
1
1
1
1
1
1
1
1
1
1
1
1
1
1
1
1
1
1
1
1
1
1
1
1
1
1
1
1
1
1
1
1
1
1
1
1
1
1
1
1
1
1
1
1
1
1
1
1
1
1
1
1
1
1
1
1
1
1
1
1
1
1
1
1
1
1
1
1
1
1
1
1
1
1
1
1
1
1
1
1
1
1
1
1
1
1
1
1
1
1
1
1
1
1
1
1
1
1
1
1
1
1
1
1
1
1
1
1
1
1
1
1
1
1
1
1
1
1
1
1
1
1
1
1
1
1
1
1
1
1
1
1
1
1
1
1
1
1
1
1
1
1
1
1
1
1
1
1
1
1
1
1
1
1
1
1
1
1
1
1
1
1
1
1
1
1
1
1
1
1
1
1
1
1
1
1
1
1
1
1
1
1
1
1
1
1
1
1
1
1
1
1
1
1
1
1
1
1
1
1
1
1
1
1
1
1
1
1
1
1
1
1
1
1
1
1
1
1
1
1
1
1
1
1
1
1
1
1
1
1
1
1
1
1
1
1
1
1
1
1
1
1
1
1
1
1
1
1
1
1
1
1
1
1
1
1
1
1
1
1
1
1
1
1
1
1
1
1
1
1
1
1
1
1
1
1
1
1
1
1
1
1
1
1
1
1
1
1
1
1
1
1
1
1
1
1
1
1
1
1
1
1
1
1
1
1
1
1
1
1
1
1
1
1
1
1
1
1
1
1
1
1
1
1
1
1
1
1
1
1
1
1
1
1
1
1
1
1
1
1
1
1
1
1
1
1
1
1
1
1
1
1
1
1
1
1
1
1
1
1
1
1
1
1
1
1
1
1
1
1
1
1
1
1
1
1
1
1
1
1
1
1
1
1
1
1
1
1
1
1
1
1
1
1
1
1
1
1
1
1
1
1
1
1.27103
1.67942
2.19999
2.75348
3.21173
3.7362
4.25208
4.54831
4.86532
5.03254
5.00663
4.86791
4.57959
4.22905
3.91018
3.68958
3.50763
3.48015
3.48214
3.46732
3.47975
3.50867
3.53946
3.58366
3.61581
3.63558
3.64763
3.65129
3.6546
3.65785
3.65883
3.65287
3.64136
3.63157
3.62949
3.63371
3.64225
3.65148
3.66066
3.66954
3.67632
3.67874
3.67967
3.67867
3.67547
3.67143
3.66612
3.65983
3.65537
3.65336
3.65225
3.65063
3.64913
3.64944
3.65216
3.65727
3.66342
3.67063
3.6774
3.67841
3.67405
3.66456
3.64974
3.6278
3.60012
3.57261
3.54618
3.51744
3.49414
3.48872
3.48723
3.48688
3.48419
3.47945
3.4742
3.46766
3.45856
3.44701
3.43786
3.42902
1.001
1.0164
1.03919
1.12883
1.29957
1.49632
1.8101
2.18674
2.58365
2.94363
3.32447
3.58236
3.66301
3.931
3.9204
3.88206
3.85103
3.78412
3.75225
3.69622
3.64348
3.58837
3.55176
3.55611
3.57078
3.59479
3.617
3.63284
3.64671
3.6522
3.65288
3.64921
3.64732
3.64542
3.64523
3.6485
3.65094
3.65181
3.65041
3.64934
3.65108
3.65477
3.65794
3.66108
3.66407
3.66604
3.66745
3.67021
3.67193
3.67275
3.67228
3.66942
3.66623
3.6644
3.66454
3.66655
3.66763
3.66665
3.66507
3.6624
3.65631
3.64562
3.63072
3.61063
3.58491
3.55801
3.53459
3.51387
3.49863
3.49352
3.49062
3.48722
3.48274
3.47674
3.46963
3.46223
3.45409
3.4457
3.44141
3.43585
1
1
0.999978
0.999955
1.00042
1.00308
1.01698
1.06661
1.17742
1.43625
1.8243
2.46609
3.1742
3.75719
4.03289
4.06347
4.09676
4.07561
4.01642
3.92224
3.74742
3.59934
3.54126
3.54305
3.55911
3.58017
3.60196
3.61678
3.62831
3.63358
3.63862
3.64601
3.65062
3.65538
3.66386
3.66889
3.66919
3.66646
3.65857
3.6472
3.63933
3.63792
3.63985
3.64205
3.64539
3.65236
3.66269
3.67257
3.67832
3.68039
3.68019
3.67819
3.67605
3.67584
3.67662
3.67745
3.67681
3.67288
3.66537
3.65848
3.64946
3.63622
3.61934
3.59821
3.57191
3.54309
3.52288
3.51114
3.50158
3.496
3.4924
3.48814
3.4825
3.47542
3.46692
3.45793
3.45119
3.44643
3.44343
3.43932
1
1
1
0.999999
0.999999
1
0.999979
1.00006
1.00002
1.00215
1.01486
1.09882
1.39156
1.88843
2.64881
3.16709
3.65247
3.84092
3.83834
3.84457
3.85103
3.81291
3.74437
3.70654
3.67199
3.64733
3.60652
3.56963
3.56257
3.5694
3.58898
3.61741
3.6447
3.66337
3.6777
3.68104
3.6803
3.67626
3.66656
3.65337
3.64185
3.64056
3.64225
3.64353
3.64477
3.64573
3.6496
3.65683
3.66312
3.668
3.67315
3.67789
3.68122
3.68329
3.68428
3.68413
3.68224
3.678
3.67146
3.66254
3.65115
3.63679
3.61903
3.59679
3.56973
3.53776
3.51249
3.50309
3.49898
3.49742
3.49504
3.49049
3.48391
3.47397
3.46116
3.44893
3.4431
3.44081
3.44022
3.44121
1
1
1
1
1
1
1
1
1
0.999997
1.00001
0.999943
1.00167
1.0184
1.14956
1.49794
2.0103
2.69455
3.22304
3.75329
3.89016
3.91735
3.91416
3.88377
3.82944
3.72385
3.62674
3.57187
3.56504
3.57192
3.58822
3.60522
3.6212
3.63624
3.64506
3.65283
3.66091
3.66529
3.66669
3.66539
3.66382
3.66623
3.66638
3.66291
3.65708
3.65439
3.65535
3.65605
3.65638
3.65544
3.65407
3.65509
3.6584
3.66329
3.66954
3.67465
3.67678
3.67636
3.67301
3.66599
3.65653
3.64352
3.62612
3.60399
3.5764
3.54493
3.51598
3.50211
3.4966
3.49536
3.49508
3.49085
3.4845
3.47542
3.46352
3.45069
3.44107
3.43576
3.43325
3.43294
1
1
1
1
1
1
1
1
1
1
1
0.999999
0.999999
0.999981
1.00007
1.00416
1.03009
1.20481
1.58274
2.1669
2.78577
3.25555
3.67238
3.73277
3.73916
3.76552
3.74362
3.68297
3.65843
3.65279
3.64239
3.62821
3.60026
3.58483
3.58479
3.59288
3.6126
3.63554
3.65462
3.66832
3.67769
3.68454
3.68663
3.68579
3.68203
3.67567
3.66778
3.66202
3.65964
3.65588
3.64812
3.64475
3.64506
3.64875
3.65572
3.66113
3.66322
3.66395
3.66382
3.66168
3.65632
3.64604
3.62991
3.60874
3.58283
3.55486
3.52377
3.50389
3.49671
3.493
3.49111
3.48754
3.48174
3.475
3.46767
3.45878
3.4471
3.43687
3.43053
3.42564
1
1
1
1
1
1
1
1
1
1
1
1
1
1
0.999999
1
0.999971
1.00045
1.00791
1.05497
1.30039
1.70714
2.34564
2.89466
3.37488
3.71132
3.77079
3.77657
3.76506
3.74145
3.704
3.6607
3.61139
3.5787
3.57372
3.57697
3.58907
3.60718
3.62351
3.64164
3.66355
3.68124
3.68982
3.69246
3.69014
3.68583
3.68462
3.68246
3.67285
3.6597
3.65106
3.648
3.6494
3.65412
3.65885
3.66029
3.65952
3.65789
3.65709
3.65632
3.65135
3.64062
3.6234
3.60251
3.58066
3.55569
3.52311
3.497
3.48813
3.48394
3.482
3.48091
3.47711
3.4736
3.47022
3.46471
3.45556
3.44362
3.43224
3.42262
1
1
1
1
1
1
1
1
1
1
1
1
1
1
1
1
0.999999
0.999998
1
0.999983
1.00176
1.01508
1.10138
1.41721
1.87853
2.53265
2.99628
3.43092
3.63987
3.66347
3.68792
3.70063
3.68675
3.65802
3.6395
3.62106
3.60849
3.6082
3.60757
3.60984
3.62069
3.63205
3.64385
3.65915
3.67264
3.67823
3.68162
3.68266
3.68185
3.67742
3.67168
3.66971
3.67092
3.67424
3.67425
3.67215
3.66809
3.66138
3.65711
3.65318
3.64667
3.63424
3.61453
3.59163
3.57055
3.54483
3.50931
3.4859
3.47922
3.47574
3.47386
3.47224
3.46999
3.46942
3.46887
3.46553
3.45929
3.44986
3.438
3.42416
1
1
1
1
1
1
1
1
1
1
1
1
1
1
1
1
1
1
1
0.999999
1
0.999987
1.00012
1.00482
1.03086
1.18882
1.57403
2.14293
2.74269
3.17432
3.57019
3.65746
3.70321
3.71405
3.70585
3.67082
3.64988
3.64179
3.62727
3.61329
3.60376
3.6026
3.60817
3.62007
3.63284
3.64011
3.64621
3.65631
3.66762
3.67258
3.67502
3.67765
3.68251
3.68965
3.69254
3.69165
3.68699
3.67451
3.65869
3.64971
3.64076
3.62646
3.60607
3.58213
3.55741
3.53039
3.49993
3.48644
3.48121
3.47677
3.47219
3.46643
3.46049
3.45888
3.45981
3.4593
3.45558
3.44965
3.44068
3.42688
1
1
1
1
1
1
1
1
1
1
1
1
1
1
1
1
1
1
1
1
1
0.999999
0.999999
1
0.999988
1.00091
1.01252
1.07157
1.35727
1.81703
2.44317
2.90305
3.28249
3.55948
3.64906
3.65855
3.6782
3.70273
3.69968
3.68532
3.66283
3.64408
3.63022
3.61975
3.61892
3.62304
3.62847
3.63616
3.64037
3.64267
3.64724
3.65484
3.66596
3.67918
3.68742
3.68778
3.68466
3.67855
3.67012
3.66178
3.6508
3.63416
3.61193
3.58511
3.55567
3.52658
3.50314
3.4941
3.48919
3.48407
3.47751
3.46928
3.46132
3.45409
3.44947
3.44681
3.44409
3.44047
3.4386
3.43666
1
1
1
1
1
1
1
1
1
1
1
1
1
1
1
1
1
1
1
1
1
1
1
1
0.999999
1
0.999992
1.00009
1.00475
1.03305
1.16027
1.56048
2.12873
2.75791
3.11535
3.42835
3.58645
3.66251
3.69274
3.7002
3.69488
3.68299
3.67435
3.66539
3.66093
3.65865
3.65389
3.64676
3.63961
3.63615
3.63709
3.64058
3.64689
3.65362
3.6596
3.66496
3.66769
3.66742
3.66427
3.65892
3.64955
3.63448
3.61502
3.59221
3.56243
3.52846
3.50703
3.50034
3.49795
3.49533
3.49045
3.48391
3.47215
3.45346
3.44236
3.43661
3.43153
3.42822
3.42982
3.43557
1
1
1
1
1
1
1
1
1
1
1
1
1
1
1
1
1
1
1
1
1
1
1
1
1
1
1
0.999999
1
1.00001
1.00089
1.01623
1.08093
1.36776
1.89946
2.54727
2.99438
3.28892
3.46863
3.58989
3.64396
3.66213
3.67994
3.69187
3.69414
3.69363
3.69613
3.69474
3.68699
3.67309
3.65807
3.6504
3.64949
3.64802
3.64672
3.64883
3.65324
3.65381
3.65105
3.64783
3.64015
3.62703
3.61045
3.58993
3.56333
3.53112
3.50549
3.49832
3.49545
3.49285
3.48873
3.48419
3.47897
3.4677
3.44605
3.42859
3.42219
3.41979
3.42048
3.42908
1
1
1
1
1
1
1
1
1
1
1
1
1
1
1
1
1
1
1
1
1
1
1
1
1
1
1
1
1
1
1
0.999998
1.00022
1.00684
1.05396
1.21185
1.67411
2.33092
2.96323
3.22437
3.41012
3.49806
3.57233
3.62641
3.66338
3.68594
3.69652
3.69958
3.69431
3.68541
3.68271
3.68736
3.68861
3.68258
3.66891
3.65786
3.65312
3.6512
3.64779
3.64331
3.63464
3.62002
3.60218
3.58168
3.55833
3.53025
3.50001
3.48602
3.4826
3.48142
3.48053
3.47844
3.47492
3.47033
3.46349
3.44685
3.42591
3.41714
3.41532
3.41916
1
1
1
1
1
1
1
1
1
1
1
1
1
1
1
1
1
1
1
1
1
1
1
1
1
1
1
1
1
1
1
1
1
0.999996
1.0001
1.00205
1.03281
1.14585
1.52264
2.14319
2.88027
3.24112
3.40034
3.50344
3.52077
3.56717
3.60522
3.63834
3.65243
3.65713
3.66624
3.67989
3.69139
3.69331
3.6891
3.68535
3.683
3.67975
3.67359
3.66235
3.64507
3.62177
3.59869
3.57715
3.55598
3.53221
3.50253
3.47801
3.4668
3.46173
3.45859
3.45755
3.45956
3.46818
3.47144
3.46327
3.44535
3.42405
3.41563
3.41502
1
1
1
1
1
1
1
1
1
1
1
1
1
1
1
1
1
1
1
1
1
1
1
1
1
1
1
1
1
1
1
1
1
0.999999
1
0.999997
1.00005
1.00103
1.01881
1.11897
1.41079
1.99648
2.73837
3.35576
3.47265
3.53785
3.56225
3.5729
3.58663
3.58914
3.59361
3.60939
3.63792
3.66506
3.67756
3.68285
3.68787
3.6896
3.68571
3.67546
3.66126
3.63961
3.60973
3.58136
3.5593
3.5384
3.51597
3.49298
3.46996
3.45149
3.44512
3.44395
3.44488
3.45254
3.46381
3.46287
3.45457
3.43822
3.42184
3.41597
1
1
1
1
1
1
1
1
1
1
1
1
1
1
1
1
1
1
1
1
1
1
1
1
1
1
1
1
1
1
1
1
1
1
1
1
1
0.999998
1.00002
1.00076
1.01038
1.09962
1.36562
1.97179
2.67862
3.297
3.56297
3.60205
3.61951
3.60678
3.59533
3.59568
3.60147
3.62017
3.63537
3.64059
3.64853
3.65705
3.66357
3.6656
3.65699
3.63609
3.60706
3.57696
3.55209
3.5319
3.516
3.50619
3.49509
3.47502
3.44918
3.43728
3.43574
3.43636
3.44357
3.45889
3.45981
3.4509
3.43371
3.41882
1
1
1
1
1
1
1
1
1
1
1
1
1
1
1
1
1
1
1
1
1
1
1
1
1
1
1
1
1
1
1
1
1
1
1
1
1
1
1
0.999999
1
1.00069
1.00831
1.09272
1.37112
1.95194
2.66121
3.2748
3.567
3.65067
3.67191
3.68102
3.66344
3.64507
3.64248
3.63892
3.6374
3.63854
3.63659
3.63674
3.63411
3.62185
3.59994
3.56676
3.52676
3.50932
3.50511
3.50543
3.50527
3.50149
3.48448
3.45337
3.43234
3.42949
3.43166
3.44579
3.46258
3.46198
3.44946
3.42498
1
1
1
1
1
1
1
1
1
1
1
1
1
1
1
1
1
1
1
1
1
1
1
1
1
1
1
1
1
1
1
1
1
1
1
1
1
1
1
1
1
1
0.999999
1.00073
1.00887
1.09002
1.40303
1.9862
2.68093
3.25681
3.55002
3.66303
3.69477
3.69741
3.70251
3.70329
3.69203
3.67216
3.64901
3.63415
3.62924
3.61997
3.59963
3.56428
3.51514
3.48177
3.47527
3.47612
3.49176
3.49868
3.49511
3.4833
3.45296
3.42966
3.42627
3.42884
3.44371
3.45934
3.4581
3.43622
1
1
1
1
1
1
1
1
1
1
1
1
1
1
1
1
1
1
1
1
1
1
1
1
1
1
1
1
1
1
1
1
1
1
1
1
1
1
1
1
1
1
1
1
1
1.00079
1.01115
1.09472
1.47551
2.15122
2.76332
3.24702
3.54886
3.64904
3.68398
3.7088
3.71287
3.70035
3.67656
3.65805
3.65152
3.647
3.63398
3.59986
3.53895
3.47897
3.4545
3.44849
3.45171
3.47767
3.50148
3.49945
3.4815
3.44386
3.42191
3.41661
3.41899
3.43732
3.45346
3.44387
1
1
1
1
1
1
1
1
1
1
1
1
1
1
1
1
1
1
1
1
1
1
1
1
1
1
1
1
1
1
1
1
1
1
1
1
1
1
1
1
1
1
1
1
1
0.999999
1.00001
1.00106
1.01933
1.12872
1.565
2.32011
3.00775
3.30463
3.47075
3.60412
3.65348
3.65141
3.64535
3.63904
3.64102
3.648
3.64798
3.63364
3.60253
3.53568
3.4626
3.44234
3.43924
3.44875
3.48332
3.50078
3.49718
3.47001
3.42551
3.40519
3.40064
3.40752
3.43308
3.44303
1
1
1
1
1
1
1
1
1
1
1
1
1
1
1
1
1
1
1
1
1
1
1
1
1
1
1
1
1
1
1
1
1
1
1
1
1
1
1
1
1
1
1
1
1
1
1
0.999999
1.00004
1.00177
1.03351
1.18902
1.71213
2.54309
3.27951
3.46553
3.55607
3.59451
3.59631
3.57683
3.55478
3.55226
3.57735
3.62369
3.61927
3.58804
3.52826
3.45788
3.43458
3.43393
3.44228
3.47603
3.48817
3.4798
3.45411
3.41345
3.39322
3.39048
3.40308
3.42645
1
1
1
1
1
1
1
1
1
1
1
1
1
1
1
1
1
1
1
1
1
1
1
1
1
1
1
1
1
1
1
1
1
1
1
1
1
1
1
1
1
1
1
1
1
1
1
1
1
0.999999
1.00016
1.00366
1.05875
1.30931
1.96143
2.78445
3.37986
3.65594
3.67228
3.6389
3.54482
3.49622
3.49748
3.53941
3.60482
3.60395
3.57456
3.5096
3.43947
3.41353
3.4104
3.42127
3.45878
3.47926
3.47301
3.44936
3.41202
3.39052
3.38611
3.40077
1
1
1
1
1
1
1
1
1
1
1
1
1
1
1
1
1
1
1
1
1
1
1
1
1
1
1
1
1
1
1
1
1
1
1
1
1
1
1
1
1
1
1
1
1
1
1
1
1
1
1
1
1.00053
1.0098
1.11536
1.50461
2.25694
3.04582
3.57814
3.67003
3.66214
3.58178
3.50936
3.5074
3.54863
3.59188
3.57833
3.54875
3.48742
3.41892
3.39617
3.39461
3.40898
3.44873
3.46924
3.46583
3.44706
3.41343
3.39029
3.38873
1
1
1
1
1
1
1
1
1
1
1
1
1
1
1
1
1
1
1
1
1
1
1
1
1
1
1
1
1
1
1
1
1
1
1
1
1
1
1
1
1
1
1
1
1
1
1
1
1
1
1
1
0.999999
1.00002
1.00179
1.02682
1.24407
1.84154
2.6328
3.37978
3.63424
3.61981
3.54337
3.49449
3.48939
3.51725
3.55725
3.55124
3.5272
3.48684
3.4289
3.39287
3.38765
3.39707
3.4288
3.45219
3.4495
3.43773
3.41754
3.39631
1
1
1
1
1
1
1
1
1
1
1
1
1
1
1
1
1
1
1
1
1
1
1
1
1
1
1
1
1
1
1
1
1
1
1
1
1
1
1
1
1
1
1
1
1
1
1
1
1
1
1
1
1
1
0.999999
1.00019
1.00716
1.08644
1.49641
2.27884
3.14583
3.55473
3.54588
3.49245
3.44589
3.43127
3.44421
3.5022
3.53198
3.52482
3.502
3.45618
3.40086
3.38159
3.38433
3.40367
3.43432
3.44323
3.43875
3.4189
1
1
1
1
1
1
1
1
1
1
1
1
1
1
1
1
1
1
1
1
1
1
1
1
1
1
1
1
1
1
1
1
1
1
1
1
1
1
1
1
1
1
1
1
1
1
1
1
1
1
1
1
1
1
1
0.999999
1.00002
1.00135
1.03255
1.25239
1.90119
2.7694
3.41937
3.54802
3.53469
3.42533
3.3829
3.39209
3.44598
3.50557
3.51275
3.49884
3.4636
3.40907
3.37671
3.37525
3.39112
3.42231
3.43367
3.4264
1
1
1
1
1
1
1
1
1
1
1
1
1
1
1
1
1
1
1
1
1
1
1
1
1
1
1
1
1
1
1
1
1
1
1
1
1
1
1
1
1
1
1
1
1
1
1
1
1
1
1
1
1
1
1
1
1
1
1.00031
1.00859
1.11994
1.54744
2.35764
3.12091
3.48411
3.51289
3.47948
3.38327
3.36645
3.39163
3.45844
3.49116
3.48599
3.46508
3.42503
3.38486
3.37532
3.38077
3.40289
3.42178
1
1
1
1
1
1
1
1
1
1
1
1
1
1
1
1
1
1
1
1
1
1
1
1
1
1
1
1
1
1
1
1
1
1
1
1
1
1
1
1
1
1
1
1
1
1
1
1
1
1
1
1
1
1
1
1
1
1
1
1.00004
1.00239
1.04079
1.31302
1.95995
2.76871
3.38651
3.47327
3.48243
3.40639
3.35189
3.35781
3.40191
3.46053
3.47285
3.46441
3.44271
3.40309
3.37441
3.37283
3.38853
1
1
1
1
1
1
1
1
1
1
1
1
1
1
1
1
1
1
1
1
1
1
1
1
1
1
1
1
1
1
1
1
1
1
1
1
1
1
1
1
1
1
1
1
1
1
1
1
1
1
1
1
1
1
1
1
1
1
1
1
1
1.00051
1.01285
1.15132
1.65581
2.43617
3.08827
3.43128
3.46768
3.44634
3.35542
3.3402
3.36534
3.41755
3.45303
3.45529
3.44499
3.41986
3.38445
3.37285
1
1
1
1
1
1
1
1
1
1
1
1
1
1
1
1
1
1
1
1
1
1
1
1
1
1
1
1
1
1
1
1
1
1
1
1
1
1
1
1
1
1
1
1
1
1
1
1
1
1
1
1
1
1
1
1
1
1
1
1
1
1
1.00008
1.0044
1.06414
1.40313
2.07052
2.8012
3.33764
3.42773
3.44449
3.40271
3.34668
3.34043
3.36336
3.41087
3.43964
3.44087
3.43204
3.39908
1
1
1
1
1
1
1
1
1
1
1
1
1
1
1
1
1
1
1
1
1
1
1
1
1
1
1
1
1
1
1
1
1
1
1
1
1
1
1
1
1
1
1
1
1
1
1
1
1
1
1
1
1
1
1
1
1
1
1
1
1
1
1
1.00001
1.00119
1.02273
1.20804
1.75313
2.50262
3.05725
3.38396
3.44243
3.44668
3.379
3.33567
3.34101
3.37112
3.41423
3.4345
3.4263
1
1
1
1
1
1
1
1
1
1
1
1
1
1
1
1
1
1
1
1
1
1
1
1
1
1
1
1
1
1
1
1
1
1
1
1
1
1
1
1
1
1
1
1
1
1
1
1
1
1
1
1
1
1
1
1
1
1
1
1
1
1
1
1
1
1.00021
1.00814
1.08731
1.48753
2.19453
2.82427
3.28643
3.4149
3.43333
3.42821
3.36471
3.32945
3.33453
3.37683
3.41916
1
1
1
1
1
1
1
1
1
1
1
1
1
1
1
1
1
1
1
1
1
1
1
1
1
1
1
1
1
1
1
1
1
1
1
1
1
1
1
1
1
1
1
1
1
1
1
1
1
1
1
1
1
1
1
1
1
1
1
1
1
1
1
1
1
1
1.00004
1.00217
1.03653
1.28068
1.90728
2.61359
3.04829
3.36075
3.4276
3.44329
3.40315
3.33058
3.3237
3.36014
1
1
1
1
1
1
1
1
1
1
1
1
1
1
1
1
1
1
1
1
1
1
1
1
1
1
1
1
1
1
1
1
1
1
1
1
1
1
1
1
1
1
1
1
1
1
1
1
1
1
1
1
1
1
1
1
1
1
1
1
1
1
1
1
1
1
1
1
1.00052
1.01588
1.13442
1.60942
2.37969
2.88645
3.25055
3.41593
3.43505
3.41955
3.33916
3.32308
1
1
1
1
1
1
1
1
1
1
1
1
1
1
1
1
1
1
1
1
1
1
1
1
1
1
1
1
1
1
1
1
1
1
1
1
1
1
1
1
1
1
1
1
1
1
1
1
1
1
1
1
1
1
1
1
1
1
1
1
1
1
1
1
1
1
1
1
1
1.00014
1.00457
1.06171
1.39647
2.12023
2.73352
3.12942
3.39918
3.42377
3.41755
3.34086
1
1
1
1
1
1
1
1
1
1
1
1
1
1
1
1
1
1
1
1
1
1
1
1
1
1
1
1
1
1
1
1
1
1
1
1
1
1
1
1
1
1
1
1
1
1
1
1
1
1
1
1
1
1
1
1
1
1
1
1
1
1
1
1
1
1
1
1
1
1
1.00002
1.00141
1.03074
1.23449
1.85345
2.5491
3.02553
3.35647
3.40335
3.39424
1
1
1
1
1
1
1
1
1
1
1
1
1
1
1
1
1
1
1
1
1
1
1
1
1
1
1
1
1
1
1
1
1
1
1
1
1
1
1
1
1
1
1
1
1
1
1
1
1
1
1
1
1
1
1
1
1
1
1
1
1
1
1
1
1
1
1
1
1
1
1
1
1.00047
1.01306
1.12726
1.61739
2.36104
2.90987
3.29081
3.37961
1
1
1
1
1
1
1
1
1
1
1
1
1
1
1
1
1
1
1
1
1
1
1
1
1
1
1
1
1
1
1
1
1
1
1
1
1
1
1
1
1
1
1
1
1
1
1
1
1
1
1
1
1
1
1
1
1
1
1
1
1
1
1
1
1
1
1
1
1
1
1
1
1
1.00012
1.00488
1.07149
1.42403
2.1602
2.83733
3.23335
1
1
1
1
1
1
1
1
1
1
1
1
1
1
1
1
1
1
1
1
1
1
1
1
1
1
1
1
1
1
1
1
1
1
1
1
1
1
1
1
1
1
1
1
1
1
1
1
1
1
1
1
1
1
1
1
1
1
1
1
1
1
1
1
1
1
1
1
1
1
1
1
1
1
1.00003
1.00199
1.03895
1.29229
1.9214
2.94826
1
1
1
1
1
1
1
1
1
1
1
1
1
1
1
1
1
1
1
1
1
1
1
1
1
1
1
1
1
1
1
1
1
1
1
1
1
1
1
1
1
1
1
1
1
1
1
1
1
1
1
1
1
1
1
1
1
1
1
1
1
1
1
1
1
1
1
1
1
1
1
1
1
1
1
1.00001
1.0008
1.02158
1.18845
2.63483
)
;

boundaryField
{
    inlet
    {
        type            fixedValue;
        value           uniform 1;
    }
    outlet
    {
        type            zeroGradient;
    }
    bottom
    {
        type            symmetryPlane;
    }
    top
    {
        type            symmetryPlane;
    }
    obstacle
    {
        type            zeroGradient;
    }
    defaultFaces
    {
        type            empty;
    }
}


// ************************************************************************* //
