/*--------------------------------*- C++ -*----------------------------------*\
| =========                 |                                                 |
| \\      /  F ield         | OpenFOAM: The Open Source CFD Toolbox           |
|  \\    /   O peration     | Version:  2206                                  |
|   \\  /    A nd           | Website:  www.openfoam.com                      |
|    \\/     M anipulation  |                                                 |
\*---------------------------------------------------------------------------*/
FoamFile
{
    version     2.0;
    format      ascii;
    arch        "LSB;label=32;scalar=64";
    class       volVectorField;
    location    "0.16";
    object      U;
}
// * * * * * * * * * * * * * * * * * * * * * * * * * * * * * * * * * * * * * //

dimensions      [0 1 -1 0 0 0 0];

internalField   nonuniform List<vector> 
75
(
(4.93939 4.41118e-15 0)
(4.93939 4.39868e-15 0)
(4.93939 8.73276e-15 0)
(4.93939 8.61274e-15 0)
(4.93939 8.16224e-15 0)
(4.93939 -2.7088e-17 0)
(4.93939 3.92234e-15 0)
(4.93939 3.56228e-15 0)
(4.93939 3.30224e-15 0)
(4.93939 3.43946e-15 0)
(4.93939 -3.81941e-15 0)
(4.93939 -2.61087e-15 0)
(4.93939 -5.46553e-15 0)
(4.93939 -4.56871e-15 0)
(4.93939 1.16774e-17 0)
(4.93939 2.2433e-15 0)
(4.93939 6.22357e-15 0)
(4.93939 1.01163e-14 0)
(4.93939 1.29164e-14 0)
(4.93939 4.19963e-14 0)
(4.93939 1.95784e-15 0)
(4.93939 1.05822e-14 0)
(4.93939 1.55402e-14 0)
(4.93939 2.15729e-14 0)
(4.93939 4.23144e-14 0)
(4.90461 0.0337699 0)
(4.85526 0.0318775 0)
(4.79098 0.160365 0)
(4.74253 0.202086 0)
(4.66295 0.38548 0)
(4.62332 0.445824 0)
(4.52837 0.648644 0)
(4.51595 0.711085 0)
(4.42062 0.927073 0)
(4.33169 1.05487 0)
(4.93896 0.00108281 0)
(4.93881 0.000223421 0)
(4.92943 0.016909 0)
(4.90399 0.0764102 0)
(4.84928 0.201179 0)
(4.76789 0.41859 0)
(4.65501 0.699741 0)
(4.54001 1.02826 0)
(4.38504 1.39368 0)
(4.20331 1.53955 0)
(4.93939 -2.81457e-07 0)
(4.9394 1.57808e-06 0)
(4.93948 -0.000197214 0)
(4.93928 0.000270985 0)
(4.93997 -0.00194699 0)
(4.93782 0.00585157 0)
(4.93012 0.0241307 0)
(4.89079 0.149393 0)
(4.86121 0.338289 0)
(4.60491 0.976439 0)
(4.93939 -7.13198e-09 0)
(4.93939 -7.50561e-07 0)
(4.93941 -2.27072e-05 0)
(4.93941 -3.61264e-05 0)
(4.93945 -0.000151373 0)
(4.93944 -0.00014491 0)
(4.94027 -0.000992764 0)
(4.9391 0.00182561 0)
(4.93923 0.0151592 0)
(4.75556 0.628785 0)
(4.93939 -5.05627e-09 0)
(4.93939 -9.24526e-09 0)
(4.93939 -8.91422e-08 0)
(4.9394 -3.4955e-06 0)
(4.9394 -2.28189e-05 0)
(4.93941 -4.0291e-05 0)
(4.9395 -0.000130706 0)
(4.93952 -9.8214e-05 0)
(4.93945 0.000163187 0)
(4.86023 0.114036 0)
)
;

boundaryField
{
    inlet
    {
        type            fixedValue;
        value           uniform (4.93939 0 0);
    }
    outlet
    {
        type            zeroGradient;
    }
    bottom
    {
        type            symmetryPlane;
    }
    top
    {
        type            symmetryPlane;
    }
    obstacle
    {
        type            slip;
    }
    defaultFaces
    {
        type            empty;
    }
}


// ************************************************************************* //
