/*--------------------------------*- C++ -*----------------------------------*\
| =========                 |                                                 |
| \\      /  F ield         | OpenFOAM: The Open Source CFD Toolbox           |
|  \\    /   O peration     | Version:  2206                                  |
|   \\  /    A nd           | Website:  www.openfoam.com                      |
|    \\/     M anipulation  |                                                 |
\*---------------------------------------------------------------------------*/
FoamFile
{
    version     2.0;
    format      ascii;
    arch        "LSB;label=32;scalar=64";
    class       volVectorField;
    location    "0.04";
    object      U;
}
// * * * * * * * * * * * * * * * * * * * * * * * * * * * * * * * * * * * * * //

dimensions      [0 1 -1 0 0 0 0];

internalField   nonuniform List<vector> 
4800
(
(4.13131 1.89366e-15 0)
(4.13131 9.98506e-15 0)
(4.13131 6.57847e-14 0)
(4.13131 9.42163e-14 0)
(4.13131 1.23295e-13 0)
(4.13131 1.24185e-13 0)
(4.13131 1.08075e-13 0)
(4.13131 1.02571e-13 0)
(4.13131 5.75533e-14 0)
(4.13131 1.79164e-14 0)
(4.13131 3.64463e-14 0)
(4.13131 4.8175e-14 0)
(4.13131 3.36058e-14 0)
(4.13131 -1.74797e-14 0)
(4.13131 -9.41396e-14 0)
(4.13131 -1.5286e-13 0)
(4.13131 -1.45685e-13 0)
(4.13131 -9.06123e-14 0)
(4.13131 -5.52029e-14 0)
(4.13131 8.55148e-15 0)
(4.13131 6.84118e-15 0)
(4.13131 -5.9947e-14 0)
(4.13131 -5.98003e-14 0)
(4.13131 -3.63396e-15 0)
(4.13131 2.71247e-14 0)
(4.13131 7.34727e-14 0)
(4.13131 3.60262e-14 0)
(4.13131 -4.75982e-14 0)
(4.13131 -1.24288e-14 0)
(4.13131 5.11455e-14 0)
(4.13131 1.02611e-13 0)
(4.13131 9.58966e-14 0)
(4.13131 3.22122e-14 0)
(4.13131 -4.67047e-14 0)
(4.13131 -9.41629e-14 0)
(4.13131 -9.35462e-14 0)
(4.13131 -7.70766e-14 0)
(4.13131 -4.18772e-14 0)
(4.13131 -5.12555e-14 0)
(4.13131 -4.97853e-14 0)
(4.13131 2.95718e-15 0)
(4.13131 6.08838e-14 0)
(4.13131 6.42844e-14 0)
(4.13131 6.95053e-14 0)
(4.13131 7.12623e-14 0)
(4.13131 6.18674e-14 0)
(4.13131 7.61798e-14 0)
(4.13131 1.18794e-13 0)
(4.13131 1.08759e-13 0)
(4.13131 6.42078e-14 0)
(4.13131 8.3161e-14 0)
(4.13131 1.28355e-13 0)
(4.13131 1.144e-13 0)
(4.13131 5.2219e-14 0)
(4.13131 -4.55179e-14 0)
(4.13131 -7.28959e-14 0)
(4.13131 -6.11372e-14 0)
(4.13131 -4.8295e-14 0)
(4.13131 -3.01585e-14 0)
(4.13131 -1.99201e-14 0)
(4.13131 -8.08173e-14 0)
(4.13131 -1.29989e-13 0)
(4.13131 -1.3627e-13 0)
(4.13131 -8.05206e-14 0)
(4.13131 -3.28057e-15 0)
(4.13131 1.25138e-13 0)
(4.13131 2.05379e-13 0)
(4.13131 9.82236e-14 0)
(4.13131 6.29042e-14 0)
(4.13131 5.94869e-14 0)
(4.13131 9.78736e-14 0)
(4.13131 1.1385e-13 0)
(4.13131 8.77151e-15 0)
(4.13131 -3.61396e-14 0)
(4.13131 -4.21473e-14 0)
(4.13131 -4.08237e-14 0)
(4.13131 -3.44226e-14 0)
(4.13131 -1.00094e-13 0)
(4.13131 -6.60514e-14 0)
(4.13131 1.13646e-14 0)
(4.13131 -2.93051e-15 0)
(4.13131 1.63228e-14 0)
(4.13131 -3.19022e-14 0)
(4.13131 -6.77117e-14 0)
(4.13131 -7.08456e-14 0)
(4.13131 -7.11956e-14 0)
(4.13131 -5.17923e-14 0)
(4.13131 2.36374e-15 0)
(4.13131 5.81134e-14 0)
(4.13131 1.83332e-13 0)
(4.13131 2.25919e-13 0)
(4.13131 1.92337e-13 0)
(4.13131 1.7548e-13 0)
(4.13131 1.69876e-13 0)
(4.13131 8.36244e-14 0)
(4.13131 2.35474e-14 0)
(4.13131 -7.9347e-16 0)
(4.13131 2.93051e-15 0)
(4.13131 4.16039e-14 0)
(4.13131 -3.839e-14 0)
(4.13131 -1.28912e-13 0)
(4.13131 -1.32129e-13 0)
(4.13131 -1.35437e-13 0)
(4.13131 -1.61475e-13 0)
(4.13131 1.78698e-14 0)
(4.13131 1.08892e-13 0)
(4.13131 1.64452e-13 0)
(4.13131 1.51263e-13 0)
(4.13131 7.12323e-14 0)
(4.13131 5.88335e-14 0)
(4.13131 1.26659e-13 0)
(4.13131 1.63652e-13 0)
(4.13131 -3.59562e-14 0)
(4.13131 -1.72873e-13 0)
(4.13131 -1.23928e-13 0)
(4.13131 -1.32129e-13 0)
(4.13131 -1.38447e-13 0)
(4.13131 -1.77644e-13 0)
(4.13131 -5.42327e-14 0)
(4.13131 -3.18818e-14 0)
(4.13131 3.884e-15 0)
(4.13131 -5.08188e-14 0)
(4.13131 -4.77482e-14 0)
(4.13131 -7.58398e-14 0)
(4.13131 -5.85868e-14 0)
(4.13131 -1.06218e-14 0)
(4.13131 -1.916e-14 0)
(4.13131 -3.44459e-14 0)
(4.13131 2.31707e-15 0)
(4.13131 9.50264e-14 0)
(4.13131 9.49664e-14 0)
(4.13131 6.11172e-14 0)
(4.13131 5.69265e-14 0)
(4.13131 6.14573e-14 0)
(4.13131 3.97169e-14 0)
(4.13131 -2.34574e-14 0)
(4.13131 3.01085e-14 0)
(4.13131 6.62948e-14 0)
(4.13131 7.76467e-14 0)
(4.13131 6.32076e-14 0)
(4.13131 -2.09636e-14 0)
(4.13131 -9.36995e-14 0)
(4.13131 -1.06288e-13 0)
(4.13131 -8.98689e-14 0)
(4.13131 -4.89218e-14 0)
(4.13131 -3.77999e-14 0)
(4.13131 -3.61496e-14 0)
(4.13131 -3.2839e-14 0)
(4.13131 5.51162e-14 0)
(4.13131 9.83803e-14 0)
(4.13131 9.82403e-14 0)
(4.13131 2.7008e-14 0)
(4.13131 -2.22438e-14 0)
(4.13131 -8.90654e-14 0)
(4.13131 -1.00261e-13 0)
(4.13131 -2.39391e-13 0)
(4.13131 -2.82846e-13 0)
(4.13131 -2.54191e-13 0)
(4.13131 -1.5667e-13 0)
(4.13131 -1.01252e-13 0)
(4.13131 -6.7845e-15 0)
(4.13131 -5.03254e-14 0)
(4.13131 -3.2659e-14 0)
(4.13131 3.58028e-14 0)
(4.13131 1.02101e-13 0)
(4.13131 1.47422e-13 0)
(4.13131 1.1512e-13 0)
(4.13131 5.50762e-14 0)
(4.13131 1.16653e-14 0)
(4.13131 -5.812e-14 0)
(4.13131 -4.98186e-14 0)
(4.13131 -1.17824e-13 0)
(4.13131 -1.39071e-13 0)
(4.13131 -1.14286e-13 0)
(4.13131 2.40875e-14 0)
(4.13131 6.45011e-14 0)
(4.13131 1.27729e-13 0)
(4.13131 1.10389e-13 0)
(4.13131 9.11591e-14 0)
(4.13131 7.43362e-14 0)
(4.13131 -4.72648e-14 0)
(4.13131 -1.04675e-13 0)
(4.13131 -1.19984e-13 0)
(4.13131 -8.87287e-14 0)
(4.13131 -9.651e-14 0)
(4.13131 -1.34733e-13 0)
(4.13131 -1.44085e-13 0)
(4.13131 -1.20387e-13 0)
(4.13131 -4.53545e-14 0)
(4.13131 -3.59062e-15 0)
(4.13131 -1.21788e-14 0)
(4.13131 -7.41128e-14 0)
(4.13131 -1.05202e-13 0)
(4.13131 -1.27822e-13 0)
(4.13131 -2.28676e-13 0)
(4.13131 -2.54091e-13 0)
(4.13131 -2.61999e-13 0)
(4.13131 -1.85919e-13 0)
(4.13131 -1.30239e-13 0)
(4.13131 -8.96138e-14 0)
(4.13131 3.16055e-15 0)
(4.13131 2.44109e-14 0)
(4.13131 3.90934e-14 0)
(4.13131 8.40945e-14 0)
(4.13131 9.92705e-14 0)
(4.13131 9.8167e-14 0)
(4.13131 6.88852e-14 0)
(4.13131 -4.66014e-14 0)
(4.13131 -9.18625e-14 0)
(4.13131 -9.52498e-14 0)
(4.13131 -5.16823e-14 0)
(4.13131 -4.94985e-14 0)
(4.13131 -7.5403e-14 0)
(4.13131 -8.25343e-14 0)
(4.13131 -7.36561e-14 0)
(4.13131 1.36494e-13 0)
(4.13131 2.47049e-13 0)
(4.13131 2.73871e-13 0)
(4.13131 2.12883e-13 0)
(4.13131 9.31261e-14 0)
(4.13131 -2.33474e-14 0)
(4.13131 -5.10421e-14 0)
(4.13131 -7.05355e-14 0)
(4.13131 -8.31544e-14 0)
(4.13131 -9.0909e-14 0)
(4.13131 -2.03335e-14 0)
(4.13131 5.07088e-15 0)
(4.13131 -2.35341e-14 0)
(4.13131 -8.8892e-14 0)
(4.13131 -1.54293e-13 0)
(4.13131 -2.13477e-13 0)
(4.13131 -2.02008e-13 0)
(4.13131 -1.89866e-13 0)
(4.13131 -2.06232e-13 0)
(4.13131 -2.36601e-13 0)
(4.13131 -2.22392e-13 0)
(4.13131 -2.30783e-13 0)
(4.13131 -1.52413e-13 0)
(4.13131 -1.34103e-13 0)
(4.13131 -1.01095e-13 0)
(4.13131 7.55464e-15 0)
(4.13131 2.55277e-14 0)
(4.13131 2.24305e-14 0)
(4.13131 -1.1632e-14 0)
(4.13131 -1.16037e-13 0)
(4.13131 -1.39144e-13 0)
(4.13131 -1.28005e-13 0)
(4.13131 -1.45228e-13 0)
(4.13131 -1.61538e-13 0)
(4.13131 -1.01374e-13 0)
(4.13131 -6.51479e-14 0)
(4.13131 1.43725e-14 0)
(4.13131 7.63765e-14 0)
(4.13131 3.1092e-14 0)
(4.13131 1.38724e-14 0)
(4.13131 2.03902e-14 0)
(4.13131 -6.9512e-15 0)
(4.13131 4.49744e-14 0)
(4.13131 5.61264e-14 0)
(4.13131 6.14739e-14 0)
(4.13131 -8.81152e-15 0)
(4.13131 -1.02318e-14 0)
(4.13131 1.76697e-15 0)
(4.13131 -4.30008e-14 0)
(4.13131 -7.65299e-14 0)
(4.13131 -3.94568e-14 0)
(4.13131 -1.46259e-14 0)
(4.13131 -3.29457e-14 0)
(4.13131 -9.12958e-14 0)
(4.13131 -1.67739e-13 0)
(4.13131 -1.9117e-13 0)
(4.13131 -1.19151e-13 0)
(4.13131 -9.14191e-14 0)
(4.13131 -8.73384e-14 0)
(4.13131 -1.08099e-13 0)
(4.13131 -1.15133e-13 0)
(4.13131 -1.76177e-13 0)
(4.13131 -1.68722e-13 0)
(4.13131 -2.00035e-13 0)
(4.13131 -1.87873e-13 0)
(4.13131 3.92734e-15 0)
(4.13131 7.03455e-16 0)
(4.13131 -3.58995e-14 0)
(4.13131 -1.71066e-13 0)
(4.13131 -2.42722e-13 0)
(4.13131 -1.82588e-13 0)
(4.13131 -8.31244e-14 0)
(4.13131 -2.41442e-14 0)
(4.13131 -1.77964e-14 0)
(4.13131 -2.54044e-15 0)
(4.13131 -2.85449e-14 0)
(4.13131 5.3776e-15 0)
(4.13131 2.65813e-14 0)
(4.13131 -3.834e-15 0)
(4.13131 -3.30857e-14 0)
(4.13131 -6.3671e-14 0)
(4.13131 -7.47462e-14 0)
(4.13131 -4.51211e-14 0)
(4.13131 -4.40076e-15 0)
(4.13131 2.76814e-14 0)
(4.13131 1.25122e-14 0)
(4.13131 -4.30941e-14 0)
(4.13131 -2.37374e-15 0)
(4.13131 6.19607e-14 0)
(4.13131 8.83919e-14 0)
(4.13131 8.38411e-14 0)
(4.13131 -2.12837e-14 0)
(4.13131 -4.34275e-14 0)
(4.13131 -3.11087e-14 0)
(4.13131 -2.07803e-14 0)
(4.13131 -7.87503e-14 0)
(4.13131 -9.47997e-14 0)
(4.13131 -7.58298e-14 0)
(4.13131 -6.09105e-15 0)
(4.13131 -1.80298e-14 0)
(4.13131 -1.84432e-14 0)
(4.13131 1.69696e-14 0)
(4.13131 3.71964e-14 0)
(4.13131 4.97753e-15 0)
(4.13131 -2.14932e-14 0)
(4.13131 -2.76714e-15 0)
(4.13131 -2.23705e-15 0)
(4.13131 -1.29922e-14 0)
(4.13131 -2.23505e-14 0)
(4.13131 -1.49893e-14 0)
(4.13131 1.87699e-15 0)
(4.13131 4.87784e-14 0)
(4.13131 7.05155e-14 0)
(4.13131 7.83069e-14 0)
(4.13131 5.77e-14 0)
(4.13131 3.97335e-14 0)
(4.13131 2.25106e-14 0)
(4.13131 -5.9657e-14 0)
(4.13131 -5.68898e-14 0)
(4.13131 -5.14689e-14 0)
(4.13131 -8.20408e-14 0)
(4.13131 -1.62241e-13 0)
(4.13131 -1.83678e-13 0)
(4.13131 -1.45772e-13 0)
(4.13131 -2.15471e-14 0)
(4.13131 3.86733e-14 0)
(4.13131 2.63379e-14 0)
(4.13131 -3.39359e-14 0)
(4.13131 -3.94735e-15 0)
(4.13131 1.48166e-13 0)
(4.13131 1.51379e-13 0)
(4.13131 1.06295e-13 0)
(4.13131 5.14956e-14 0)
(4.13131 5.01453e-14 0)
(4.13131 6.48979e-14 0)
(4.13131 -1.65862e-14 0)
(4.13131 -7.20991e-14 0)
(4.13131 -7.3176e-14 0)
(4.13131 -7.9137e-14 0)
(4.13131 -2.99285e-14 0)
(4.13131 3.16921e-14 0)
(4.13131 7.41095e-14 0)
(4.13131 1.25375e-13 0)
(4.13131 1.32666e-13 0)
(4.13131 6.46195e-14 0)
(4.13131 -2.28539e-14 0)
(4.13131 -6.13106e-15 0)
(4.13131 2.24305e-14 0)
(4.13131 1.08569e-13 0)
(4.13131 9.49197e-14 0)
(4.13131 6.02937e-14 0)
(4.13131 3.66297e-14 0)
(4.13131 5.22224e-14 0)
(4.13131 4.15805e-14 0)
(4.13131 -1.73463e-14 0)
(4.13131 -3.69464e-14 0)
(4.13131 -5.52962e-14 0)
(4.13131 -4.72782e-14 0)
(4.13131 -4.54679e-14 0)
(4.13131 -5.57363e-14 0)
(4.13131 -4.84317e-14 0)
(4.13131 -2.73681e-14 0)
(4.13131 -7.96804e-15 0)
(4.13131 -4.76482e-14 0)
(4.13131 -6.64748e-14 0)
(4.13131 -7.57831e-14 0)
(4.13131 -3.55428e-14 0)
(4.13131 -5.91302e-14 0)
(4.13131 -2.40141e-14 0)
(4.13131 -1.02351e-15 0)
(4.13131 5.811e-14 0)
(4.13131 6.9662e-14 0)
(4.13131 4.01403e-15 0)
(4.13131 -2.25506e-14 0)
(4.13131 -1.09686e-15 0)
(4.13131 9.29961e-14 0)
(4.13131 2.03068e-14 0)
(4.13131 -6.26442e-14 0)
(4.13131 -8.15608e-14 0)
(4.13131 -1.3644e-13 0)
(4.13131 -5.21857e-14 0)
(4.13131 -1.66629e-14 0)
(4.13131 -2.22338e-14 0)
(4.13131 -4.81183e-14 0)
(4.13131 -7.45277e-14 0)
(4.13131 2.55711e-14 0)
(4.13131 8.08806e-15 0)
(4.13131 1.16387e-14 0)
(4.13131 8.20475e-15 0)
(4.13131 -1.61695e-15 0)
(4.13131 -1.1382e-14 0)
(4.13131 -1.01884e-14 0)
(4.13131 -8.77151e-15 0)
(4.13131 -6.61448e-14 0)
(4.13131 -7.99771e-14 0)
(4.13131 -9.13258e-14 0)
(4.13131 -8.03772e-14 0)
(4.13131 -7.20724e-14 0)
(4.13131 -1.69863e-14 0)
(4.13131 5.46428e-15 0)
(4.13131 1.19621e-14 0)
(4.13131 6.3741e-14 0)
(4.13131 4.15772e-14 0)
(4.13131 -5.4266e-14 0)
(4.13131 -9.2596e-14 0)
(4.13131 -8.44646e-14 0)
(4.13131 4.78083e-15 0)
(4.13131 3.47893e-14 0)
(4.13131 5.91936e-14 0)
(4.13131 -3.35725e-14 0)
(4.13131 -8.57848e-14 0)
(4.13131 -8.70884e-14 0)
(4.13131 -4.67647e-14 0)
(4.13131 -2.54511e-14 0)
(4.13131 -1.43992e-14 0)
(4.13131 -4.16205e-14 0)
(4.13131 -7.58598e-14 0)
(4.13131 -1.20681e-13 0)
(4.13131 -8.63983e-14 0)
(4.13131 -1.49693e-14 0)
(4.13131 -8.42579e-14 0)
(4.13131 -1.40078e-13 0)
(4.13131 -2.30747e-13 0)
(4.13131 -2.62112e-13 0)
(4.13131 -2.32355e-13 0)
(4.13131 1.35257e-14 0)
(4.13131 1.61161e-14 0)
(4.13131 2.03769e-14 0)
(4.13131 1.47025e-14 0)
(4.13131 7.85736e-14 0)
(4.13131 9.13224e-14 0)
(4.13131 8.41945e-14 0)
(4.13131 7.96971e-14 0)
(4.13131 3.37958e-14 0)
(4.13131 -1.56527e-14 0)
(4.13131 -3.68397e-14 0)
(4.13131 -3.59595e-14 0)
(4.13131 -3.55095e-14 0)
(4.13131 -2.39541e-14 0)
(4.13131 1.26522e-14 0)
(4.13131 1.59894e-14 0)
(4.13131 -3.95068e-15 0)
(4.13131 -7.12056e-14 0)
(4.13131 -9.41529e-14 0)
(4.13131 -1.02841e-13 0)
(4.13131 -8.85153e-15 0)
(4.13131 6.45878e-14 0)
(4.13131 7.62298e-14 0)
(4.13131 4.43877e-14 0)
(4.13131 -5.06421e-15 0)
(4.13131 -7.91003e-14 0)
(4.13131 -6.58514e-14 0)
(4.13131 -2.66446e-14 0)
(4.13131 3.20822e-14 0)
(4.13131 4.6458e-14 0)
(4.13131 6.26775e-15 0)
(4.13131 -5.69232e-14 0)
(4.13131 -7.96204e-14 0)
(4.13131 -4.31174e-14 0)
(4.13131 6.39944e-14 0)
(4.13131 1.82632e-14 0)
(4.13131 -1.22925e-13 0)
(4.13131 -1.67849e-13 0)
(4.13131 -1.67542e-13 0)
(4.13131 -2.00653e-13 0)
(4.13131 -5.11088e-15 0)
(4.13131 5.63431e-15 0)
(4.13131 2.65913e-14 0)
(4.13131 6.61448e-14 0)
(4.13131 1.30359e-13 0)
(4.13131 1.16377e-13 0)
(4.13131 1.17584e-13 0)
(4.13131 1.41781e-13 0)
(4.13131 1.24778e-13 0)
(4.13131 4.01903e-14 0)
(4.13131 -1.06685e-14 0)
(4.13131 -5.11655e-14 0)
(4.13131 -4.71448e-14 0)
(4.13131 -5.33459e-14 0)
(4.13131 -5.23757e-15 0)
(4.13131 -1.59294e-14 0)
(4.13131 -2.71747e-14 0)
(4.13131 -8.7115e-15 0)
(4.13131 -7.73467e-16 0)
(4.13131 -7.41128e-15 0)
(4.13131 1.01518e-14 0)
(4.13131 1.98234e-14 0)
(4.13131 7.9257e-14 0)
(4.13131 1.35063e-13 0)
(4.13131 1.38034e-13 0)
(4.13131 5.23824e-14 0)
(4.13131 2.41375e-15 0)
(4.13131 -2.85449e-14 0)
(4.13131 -2.82182e-14 0)
(4.13131 -1.21654e-14 0)
(4.13131 1.33523e-14 0)
(4.13131 2.43075e-14 0)
(4.13131 1.41121e-13 0)
(4.13131 1.08642e-13 0)
(4.13131 3.67097e-14 0)
(4.13131 6.3811e-14 0)
(4.13131 9.10157e-15 0)
(4.13131 -8.24309e-14 0)
(4.13131 -7.66832e-14 0)
(4.13131 -4.83499e-14 0)
(4.13131 1.1452e-14 0)
(4.13131 5.65764e-15 0)
(4.13131 1.24188e-14 0)
(4.13131 4.18906e-14 0)
(4.13131 3.55861e-14 0)
(4.13131 3.6813e-14 0)
(4.13131 2.93317e-14 0)
(4.13131 4.74815e-14 0)
(4.13131 4.98319e-14 0)
(4.13131 9.64567e-14 0)
(4.13131 1.59438e-13 0)
(4.13131 1.58864e-13 0)
(4.13131 1.55727e-13 0)
(4.13131 1.53146e-13 0)
(4.13131 1.25315e-13 0)
(4.13131 1.19054e-14 0)
(4.13131 -5.07521e-14 0)
(4.13131 -1.25788e-14 0)
(4.13131 -8.7015e-15 0)
(4.13131 -4.71048e-14 0)
(4.13131 -6.51579e-14 0)
(4.13131 7.02355e-14 0)
(4.13131 1.90059e-13 0)
(4.13131 1.78197e-13 0)
(4.13131 1.1436e-13 0)
(4.13131 5.66665e-14 0)
(4.13131 -7.69166e-14 0)
(4.13131 -8.27043e-14 0)
(4.13131 -8.94721e-14 0)
(4.13131 -1.38071e-13 0)
(4.13131 -8.39212e-14 0)
(4.13131 7.43395e-14 0)
(4.13131 1.34657e-13 0)
(4.13131 9.68434e-14 0)
(4.13131 9.71968e-14 0)
(4.13131 9.49831e-14 0)
(4.13131 7.12256e-14 0)
(4.13131 7.57131e-14 0)
(4.13131 1.87899e-14 0)
(4.13131 -4.05773e-14 0)
(4.13131 -7.36794e-16 0)
(4.13131 -2.36374e-15 0)
(4.13131 -8.21475e-15 0)
(4.13131 -2.25472e-14 0)
(4.13131 -2.97351e-14 0)
(4.13131 2.36908e-14 0)
(4.13131 4.10838e-14 0)
(4.13131 6.32176e-14 0)
(4.13131 2.13777e-13 0)
(4.13131 2.79262e-13 0)
(4.13131 2.55051e-13 0)
(4.13131 1.83942e-13 0)
(4.13131 1.97291e-13 0)
(4.13131 1.73517e-13 0)
(4.13131 8.8982e-14 0)
(4.13131 8.57381e-14 0)
(4.13131 -2.03602e-14 0)
(4.13131 -8.39612e-14 0)
(4.13131 -2.30807e-14 0)
(4.13131 -5.56763e-16 0)
(4.13131 4.89885e-14 0)
(4.13131 5.92936e-14 0)
(4.13131 7.76567e-14 0)
(4.13131 5.00786e-14 0)
(4.13131 1.70329e-14 0)
(4.13131 7.64432e-14 0)
(4.13131 9.94505e-14 0)
(4.13131 8.79218e-14 0)
(4.13131 3.17521e-14 0)
(4.13131 2.75114e-14 0)
(4.13131 7.70866e-14 0)
(4.13131 1.72663e-14 0)
(4.13131 -3.87534e-14 0)
(4.13131 -7.18324e-14 0)
(4.13131 -5.83034e-14 0)
(4.13131 -2.77015e-14 0)
(4.13131 -3.03086e-14 0)
(4.13131 -3.06653e-14 0)
(4.13131 -2.68446e-14 0)
(4.13131 -1.92869e-14 0)
(4.13131 1.80031e-16 0)
(4.13131 8.39145e-15 0)
(4.13131 2.21438e-14 0)
(4.13131 9.22493e-15 0)
(4.13131 2.90383e-15 0)
(4.13131 1.21688e-15 0)
(4.13131 1.84065e-14 0)
(4.13131 8.50213e-14 0)
(4.13131 1.35567e-13 0)
(4.13131 1.46995e-13 0)
(4.13131 1.61028e-13 0)
(4.13131 1.26995e-13 0)
(4.13131 1.38327e-13 0)
(4.13131 1.09366e-13 0)
(4.13131 5.27758e-14 0)
(4.13131 3.24423e-14 0)
(4.13131 -3.02619e-14 0)
(4.13131 -4.67947e-14 0)
(4.13131 1.03518e-14 0)
(4.13131 1.3242e-13 0)
(4.13131 1.1792e-13 0)
(4.13131 5.15922e-14 0)
(4.13131 -2.67079e-14 0)
(4.13131 -6.34243e-14 0)
(4.13131 -1.75064e-14 0)
(4.13131 1.07875e-13 0)
(4.13131 2.76234e-13 0)
(4.13131 3.05533e-13 0)
(4.13131 2.92677e-13 0)
(4.13131 2.50337e-13 0)
(4.13131 1.96524e-13 0)
(4.13131 1.64948e-13 0)
(4.13131 1.47562e-13 0)
(4.13131 8.00272e-14 0)
(4.13131 4.45077e-15 0)
(4.13131 1.19987e-14 0)
(4.13131 -4.64947e-14 0)
(4.13131 -5.71932e-14 0)
(4.13131 4.53478e-14 0)
(4.13131 7.80948e-14 0)
(4.13131 -1.66062e-14 0)
(4.13131 -1.15987e-14 0)
(4.13131 -5.80767e-15 0)
(4.13131 1.89233e-14 0)
(4.13131 6.22041e-14 0)
(4.13131 2.16304e-14 0)
(4.13131 -5.90102e-14 0)
(4.13131 -8.07539e-14 0)
(4.13131 -1.67026e-13 0)
(4.13131 -1.44818e-13 0)
(4.13131 -8.58715e-14 0)
(4.13131 1.23155e-14 0)
(4.13131 4.73182e-14 0)
(4.13131 2.41008e-14 0)
(4.13131 -2.16404e-14 0)
(4.13131 -5.66198e-14 0)
(4.13131 -4.11638e-14 0)
(4.13131 -3.3039e-14 0)
(4.13131 1.26455e-14 0)
(4.13131 7.17757e-14 0)
(4.13131 -1.85399e-14 0)
(4.13131 -6.11906e-14 0)
(4.13131 -6.27342e-14 0)
(4.13131 -5.70799e-14 0)
(4.13131 -4.23073e-14 0)
(4.13131 -2.98918e-14 0)
(4.13131 8.35111e-14 0)
(4.13131 1.25538e-13 0)
(4.13131 1.44725e-13 0)
(4.13131 1.20824e-13 0)
(4.13131 8.77685e-14 0)
(4.13131 7.93604e-14 0)
(4.13131 9.20992e-14 0)
(4.13131 1.08235e-13 0)
(4.13131 1.33346e-13 0)
(4.13131 1.49883e-13 0)
(4.13131 1.67972e-13 0)
(4.13131 1.62475e-13 0)
(4.13131 1.14323e-13 0)
(4.13131 1.08299e-13 0)
(4.13131 -1.62528e-14 0)
(4.13131 -1.67829e-14 0)
(4.13131 -1.3239e-14 0)
(4.13131 -2.25372e-15 0)
(4.13131 2.62845e-14 0)
(4.13131 -1.7503e-15 0)
(4.13131 -1.1414e-13 0)
(4.13131 -2.15834e-13 0)
(4.13131 -2.51247e-13 0)
(4.13131 -2.82255e-13 0)
(4.13131 -2.42495e-13 0)
(4.13131 -1.88739e-13 0)
(4.13131 -1.24005e-13 0)
(4.13131 -6.60547e-14 0)
(4.13131 -5.77133e-14 0)
(4.13131 -3.24223e-14 0)
(4.13131 1.67529e-14 0)
(4.13131 1.906e-14 0)
(4.13131 1.46425e-14 0)
(4.13131 2.9155e-14 0)
(4.13131 5.74066e-14 0)
(4.13131 4.75715e-14 0)
(4.13131 1.47325e-14 0)
(4.13131 -8.66816e-16 0)
(4.13131 -1.23621e-14 0)
(4.13131 2.35707e-14 0)
(4.13131 7.57097e-14 0)
(4.13131 1.33656e-13 0)
(4.13131 1.90803e-13 0)
(4.13131 1.82892e-13 0)
(4.13131 1.61481e-13 0)
(4.13131 9.662e-14 0)
(4.13131 1.3599e-14 0)
(4.13131 2.3214e-14 0)
(4.13131 5.0322e-14 0)
(4.13131 5.52195e-14 0)
(4.13131 1.39237e-13 0)
(4.13131 1.3362e-13 0)
(4.13131 1.09496e-13 0)
(4.13131 1.02477e-13 0)
(4.13131 2.92384e-14 0)
(4.13131 2.73481e-14 0)
(4.13131 1.04551e-14 0)
(4.13131 -2.74514e-14 0)
(4.13131 -3.55761e-14 0)
(4.13131 -2.84049e-15 0)
(4.13131 -3.2839e-15 0)
(4.13131 -9.12591e-14 0)
(4.13131 -2.01565e-13 0)
(4.13131 -2.39115e-13 0)
(4.13131 -2.81335e-13 0)
(4.13131 -3.29837e-13 0)
(4.13131 -3.69627e-13 0)
(4.13131 -2.84166e-13 0)
(4.13131 -2.27466e-13 0)
(4.13131 -1.83518e-13 0)
(4.13131 -5.95736e-14 0)
(4.13131 -2.34507e-14 0)
(4.13131 -3.4856e-14 0)
(4.13131 -7.46262e-14 0)
(4.13131 -6.54413e-14 0)
(4.13131 -7.02988e-14 0)
(4.13131 -1.10752e-13 0)
(4.13131 -1.03481e-13 0)
(4.13131 -2.39108e-14 0)
(4.13131 5.12388e-14 0)
(4.13131 2.41475e-14 0)
(4.13131 6.29075e-14 0)
(4.13131 9.88404e-14 0)
(4.13131 8.05872e-14 0)
(4.13131 6.9272e-14 0)
(4.13131 5.21257e-14 0)
(4.13131 1.43091e-14 0)
(4.13131 5.35092e-15 0)
(4.13131 -9.57832e-15 0)
(4.13131 -3.68097e-14 0)
(4.13131 -6.7635e-14 0)
(4.13131 -1.04281e-13 0)
(4.13131 2.9205e-15 0)
(4.13131 7.57878e-14 0)
(4.13131 7.3446e-15 0)
(4.13131 -7.79801e-15 0)
(4.13131 -3.60562e-14 0)
(4.13131 -5.65698e-14 0)
(4.13131 -3.96835e-14 0)
(4.13131 6.70649e-14 0)
(4.13131 4.8415e-14 0)
(4.13131 2.60312e-14 0)
(4.13131 -6.09772e-15 0)
(4.13131 -2.1177e-14 0)
(4.13131 -3.2869e-14 0)
(4.13131 -6.17073e-14 0)
(4.13131 -1.00301e-13 0)
(4.13131 -2.17394e-13 0)
(4.13131 -2.35714e-13 0)
(4.13131 -2.00088e-13 0)
(4.13131 -1.09779e-13 0)
(4.13131 -1.45792e-14 0)
(4.13131 -2.93851e-14 0)
(4.13131 -7.89836e-14 0)
(4.13131 -1.41628e-13 0)
(4.13131 -1.23191e-13 0)
(4.13131 -1.09186e-13 0)
(4.13131 -1.07015e-13 0)
(4.13131 -5.61497e-14 0)
(4.13131 1.98501e-14 0)
(4.13131 -2.27039e-15 0)
(4.13131 -4.34008e-14 0)
(4.13131 -1.62021e-13 0)
(4.13131 -2.55514e-13 0)
(4.13131 -1.20441e-13 0)
(4.13131 3.94135e-14 0)
(4.13131 9.648e-14 0)
(4.13131 9.55432e-14 0)
(4.13131 6.74183e-14 0)
(4.13131 1.93133e-14 0)
(4.13131 -7.05322e-14 0)
(4.13131 -6.47779e-14 0)
(4.13131 1.47592e-14 0)
(4.13131 1.09739e-13 0)
(4.13131 -2.70713e-15 0)
(4.13131 -2.33407e-14 0)
(4.13131 4.74415e-15 0)
(4.13131 5.27925e-14 0)
(4.13131 4.75415e-14 0)
(4.13131 2.1157e-14 0)
(4.13131 3.14488e-14 0)
(4.13131 8.71584e-14 0)
(4.13131 1.45648e-13 0)
(4.13131 1.28456e-13 0)
(4.13131 1.08749e-13 0)
(4.13131 5.16556e-14 0)
(4.13131 3.32491e-14 0)
(4.13131 1.89466e-14 0)
(4.13131 -2.94851e-14 0)
(4.13131 -4.4191e-14 0)
(4.13131 -3.63529e-14 0)
(4.13131 3.55395e-15 0)
(4.13131 3.60396e-15 0)
(4.13131 2.9055e-14 0)
(4.13131 6.62914e-14 0)
(4.13131 1.84865e-14 0)
(4.13131 -2.42642e-14 0)
(4.13131 -5.43194e-14 0)
(4.13131 -3.78465e-14 0)
(4.13131 -5.808e-14 0)
(4.13131 -1.27462e-13 0)
(4.13131 -1.83558e-13 0)
(4.13131 -2.62282e-13 0)
(4.13131 -2.59808e-13 0)
(4.13131 -2.51133e-13 0)
(4.13131 -9.2796e-14 0)
(4.13131 -6.87119e-14 0)
(4.13131 -8.95055e-14 0)
(4.13131 -6.95353e-14 0)
(4.13131 2.46276e-14 0)
(4.13131 6.79984e-14 0)
(4.13131 1.00911e-13 0)
(4.13131 1.22054e-13 0)
(4.13131 1.83536e-13 0)
(4.13131 -3.54061e-15 0)
(4.13131 1.5646e-14 0)
(4.13131 4.24673e-14 0)
(4.13131 4.42143e-14 0)
(4.13131 -4.66047e-14 0)
(4.13131 -8.50714e-14 0)
(4.13131 -5.74199e-14 0)
(4.13131 9.79469e-14 0)
(4.13131 1.44965e-13 0)
(4.13131 1.13603e-13 0)
(4.13131 3.2689e-14 0)
(4.13131 5.08421e-15 0)
(4.13131 6.97787e-15 0)
(4.13131 8.23976e-14 0)
(4.13131 1.1477e-13 0)
(4.13131 9.56265e-14 0)
(4.13131 5.86001e-14 0)
(4.13131 7.39628e-14 0)
(4.13131 4.04303e-14 0)
(4.13131 6.16306e-14 0)
(4.13131 7.01021e-14 0)
(4.13131 3.76398e-14 0)
(4.13131 3.59395e-15 0)
(4.13131 -7.75234e-14 0)
(4.13131 -1.45232e-13 0)
(4.13131 -2.43819e-13 0)
(4.13131 -3.39145e-13 0)
(4.13131 -3.41232e-13 0)
(4.13131 -3.00992e-13 0)
(4.13131 -2.91764e-13 0)
(4.13131 -3.2656e-13 0)
(4.13131 -2.44062e-13 0)
(4.13131 -2.22722e-13 0)
(4.13131 -1.57531e-13 0)
(4.13131 -1.45875e-13 0)
(4.13131 -4.33075e-14 0)
(4.13131 5.05421e-14 0)
(4.13131 1.12953e-13 0)
(4.13131 1.30919e-13 0)
(4.13131 1.68299e-13 0)
(4.13131 -1.63028e-14 0)
(4.13131 6.7545e-15 0)
(4.13131 9.24826e-15 0)
(4.13131 -6.10705e-14 0)
(4.13131 -1.08919e-13 0)
(4.13131 -7.81268e-14 0)
(4.13131 -6.51513e-14 0)
(4.13131 -3.39059e-14 0)
(4.13131 1.00367e-13 0)
(4.13131 1.7202e-13 0)
(4.13131 1.52733e-13 0)
(4.13131 1.56277e-13 0)
(4.13131 2.06076e-13 0)
(4.13131 1.91506e-13 0)
(4.13131 1.88286e-13 0)
(4.13131 2.07723e-13 0)
(4.13131 1.9294e-13 0)
(4.13131 1.46505e-13 0)
(4.13131 1.11526e-13 0)
(4.13131 9.01789e-14 0)
(4.13131 -1.38024e-14 0)
(4.13131 -2.4991e-14 0)
(4.13131 -1.14296e-13 0)
(4.13131 -1.57404e-13 0)
(4.13131 -1.88036e-13 0)
(4.13131 -1.97661e-13 0)
(4.13131 -2.57965e-13 0)
(4.13131 -2.74124e-13 0)
(4.13131 -2.76811e-13 0)
(4.13131 -3.05789e-13 0)
(4.13131 -2.38728e-13 0)
(4.13131 -2.3193e-13 0)
(4.13131 -1.60901e-13 0)
(4.13131 -6.02537e-14 0)
(4.13131 -3.37058e-14 0)
(4.13131 -4.08737e-15 0)
(4.13131 5.18923e-14 0)
(4.13131 1.27805e-13 0)
(4.13131 2.3309e-13 0)
(4.13131 1.66766e-13 0)
(4.13131 -2.81049e-14 0)
(4.13131 -4.79883e-14 0)
(4.13131 -4.68781e-14 0)
(4.13131 -5.3876e-14 0)
(4.13131 -7.37961e-14 0)
(4.13131 -3.82399e-14 0)
(4.13131 8.82486e-15 0)
(4.13131 -1.57861e-14 0)
(4.13131 -2.40342e-14 0)
(4.13131 4.17439e-14 0)
(4.13131 1.23105e-13 0)
(4.13131 1.5476e-13 0)
(4.13131 1.90333e-13 0)
(4.13131 2.22055e-13 0)
(4.13131 1.93263e-13 0)
(4.13131 1.91633e-13 0)
(4.13131 2.00245e-13 0)
(4.13131 1.44155e-13 0)
(4.13131 1.07565e-13 0)
(4.13131 1.19787e-13 0)
(4.13131 -5.0342e-15 0)
(4.13131 -3.96035e-14 0)
(4.13131 -8.30943e-14 0)
(4.13131 -1.27005e-13 0)
(4.13131 -1.43331e-13 0)
(4.13131 -1.44582e-13 0)
(4.13131 -8.50747e-14 0)
(4.13131 -7.24125e-14 0)
(4.13131 -7.57497e-14 0)
(4.13131 -1.15507e-13 0)
(4.13131 -1.17567e-13 0)
(4.13131 -1.45779e-13 0)
(4.13131 -1.48249e-13 0)
(4.13131 -6.13206e-14 0)
(4.13131 1.3599e-14 0)
(4.13131 -9.15491e-15 0)
(4.13131 8.78152e-15 0)
(4.13131 8.82852e-14 0)
(4.13131 1.00564e-13 0)
(4.13131 6.10356e-14 0)
(4.13131 -2.19371e-15 0)
(4.13131 2.42942e-14 0)
(4.13131 2.20371e-14 0)
(4.13131 4.41776e-14 0)
(4.13131 8.1024e-14 0)
(4.13131 1.12813e-13 0)
(4.13131 1.11596e-13 0)
(4.13131 3.50527e-14 0)
(4.13131 -1.44192e-14 0)
(4.13131 -4.82983e-14 0)
(4.13131 -1.28589e-14 0)
(4.13131 8.77151e-15 0)
(4.13131 7.17324e-14 0)
(4.13131 1.08749e-13 0)
(4.13131 1.14133e-13 0)
(4.13131 1.07085e-13 0)
(4.13131 8.30977e-14 0)
(4.13131 3.2989e-14 0)
(4.13131 1.7223e-14 0)
(4.13131 2.16371e-14 0)
(4.13131 2.12503e-14 0)
(4.13131 1.5236e-15 0)
(4.13131 5.24091e-15 0)
(4.13131 2.17037e-15 0)
(4.13131 -2.25706e-15 0)
(4.13131 4.68881e-14 0)
(4.13131 8.35511e-14 0)
(4.13131 1.01958e-13 0)
(4.13131 2.42909e-14 0)
(4.13131 -1.55527e-14 0)
(4.13131 1.40358e-15 0)
(4.13131 1.04685e-15 0)
(4.13131 -5.41127e-14 0)
(4.13131 -8.7135e-14 0)
(4.13131 -8.52047e-14 0)
(4.13131 -6.22508e-14 0)
(4.13131 -2.21038e-14 0)
(4.13131 1.40191e-14 0)
(4.13131 2.52577e-14 0)
(4.13131 -1.21578e-14 0)
(4.13131 1.12953e-14 0)
(4.13131 5.18823e-14 0)
(4.13131 6.78917e-14 0)
(4.13131 6.78117e-14 0)
(4.13131 1.08815e-13 0)
(4.13131 7.53163e-14 0)
(4.13131 9.52498e-15 0)
(4.13131 1.5486e-14 0)
(4.13131 3.25056e-14 0)
(4.13131 8.10473e-15 0)
(4.13131 -2.99652e-14 0)
(4.13131 4.98753e-15 0)
(4.13131 6.95253e-14 0)
(4.13131 3.78365e-14 0)
(4.13131 2.38641e-14 0)
(4.13131 3.16521e-14 0)
(4.13131 -1.21954e-14 0)
(4.13131 -8.28043e-14 0)
(4.13131 -8.99622e-14 0)
(4.13131 -7.40295e-14 0)
(4.13131 -2.73847e-14 0)
(4.13131 5.65098e-15 0)
(4.13131 1.87199e-14 0)
(4.13131 2.27573e-14 0)
(4.13131 1.23101e-13 0)
(4.13131 1.66159e-13 0)
(4.13131 1.35167e-13 0)
(4.13131 1.12823e-13 0)
(4.13131 7.58731e-14 0)
(4.13131 3.48894e-14 0)
(4.13131 -8.08473e-15 0)
(4.13131 -6.24441e-15 0)
(4.13131 -5.81767e-15 0)
(4.13131 -8.56981e-14 0)
(4.13131 -7.82002e-14 0)
(4.13131 -4.16205e-14 0)
(4.13131 -6.15573e-14 0)
(4.13131 -1.30699e-13 0)
(4.13131 -6.63981e-14 0)
(4.13131 -3.99981e-14 0)
(4.13131 3.72398e-15 0)
(4.13131 -3.56728e-16 0)
(4.13131 6.3811e-15 0)
(4.13131 1.07652e-14 0)
(4.13131 1.30923e-14 0)
(4.13131 -9.87837e-15 0)
(4.13131 -3.56595e-14 0)
(4.13131 -7.1189e-14 0)
(4.13131 -6.40311e-14 0)
(4.13131 -6.88352e-14 0)
(4.13131 -4.34975e-14 0)
(4.13131 -6.58214e-14 0)
(4.13131 -9.0599e-14 0)
(4.13131 -7.79668e-14 0)
(4.13131 -2.40408e-14 0)
(4.13131 -1.88399e-14 0)
(4.13131 -8.34011e-14 0)
(4.13131 -1.83655e-13 0)
(4.13131 -1.80738e-13 0)
(4.13131 -1.68286e-13 0)
(4.13131 -1.62858e-13 0)
(4.13131 -5.27324e-14 0)
(4.13131 1.78798e-14 0)
(4.13131 3.81799e-14 0)
(4.13131 7.77168e-14 0)
(4.13131 7.96838e-14 0)
(4.13131 3.14988e-14 0)
(4.13131 -2.07803e-14 0)
(4.13131 -1.83032e-14 0)
(4.13131 -4.38576e-14 0)
(4.13131 -1.06588e-13 0)
(4.13131 -1.05798e-13 0)
(4.13131 -8.01938e-14 0)
(4.13131 -5.15189e-14 0)
(4.13131 -7.20591e-14 0)
(4.13131 -8.12407e-14 0)
(4.13131 -6.31209e-14 0)
(4.13131 -9.36262e-14 0)
(4.13131 -1.16677e-13 0)
(4.13131 -8.63578e-14 0)
(4.13131 2.43209e-14 0)
(4.13131 8.90154e-16 0)
(4.13131 -4.95085e-14 0)
(4.13131 -4.86884e-14 0)
(4.13131 -6.06738e-14 0)
(4.13131 -7.14123e-14 0)
(4.13131 -5.99637e-14 0)
(4.13131 -7.54764e-14 0)
(4.13131 -1.1823e-13 0)
(4.13131 -1.07088e-13 0)
(4.13131 -9.13158e-14 0)
(4.13131 -1.18217e-13 0)
(4.13131 -1.70746e-13 0)
(4.13131 -1.61785e-13 0)
(4.13131 -1.31193e-13 0)
(4.13131 -9.36895e-14 0)
(4.13131 -8.22575e-14 0)
(4.13131 -9.19959e-14 0)
(4.13131 -6.42378e-14 0)
(4.13131 -1.82031e-14 0)
(4.13131 -1.60294e-14 0)
(4.13131 -2.47176e-14 0)
(4.13131 -4.9922e-14 0)
(4.13131 3.53728e-15 0)
(4.13131 3.12254e-14 0)
(4.13131 2.78781e-14 0)
(4.13131 -1.33356e-15 0)
(4.13131 -3.04086e-14 0)
(4.13131 -6.83718e-14 0)
(4.13131 -6.45278e-14 0)
(4.13131 -1.82331e-14 0)
(4.13131 -2.77548e-14 0)
(4.13131 -2.62479e-14 0)
(4.13131 -3.34658e-14 0)
(4.13131 -2.53911e-14 0)
(4.13131 -1.25788e-14 0)
(4.13131 -6.9402e-14 0)
(4.13131 -1.28949e-13 0)
(4.13131 -1.87856e-13 0)
(4.13131 -2.41979e-13 0)
(4.13131 5.76433e-15 0)
(4.13131 -2.76714e-14 0)
(4.13131 -5.53229e-14 0)
(4.13131 -5.06754e-14 0)
(4.13131 -3.10154e-14 0)
(4.13131 -2.75581e-14 0)
(4.13131 -2.3374e-14 0)
(4.13131 -1.51159e-14 0)
(4.13131 6.9512e-15 0)
(4.13131 -3.10387e-15 0)
(4.13131 -5.91602e-14 0)
(4.13131 -5.96536e-14 0)
(4.13131 -9.87204e-14 0)
(4.13131 -8.17975e-14 0)
(4.13131 -8.87253e-14 0)
(4.13131 -7.09556e-14 0)
(4.13131 5.9647e-14 0)
(4.13131 7.40561e-14 0)
(4.13131 4.19372e-14 0)
(4.13131 -1.98234e-14 0)
(4.13131 -9.88971e-14 0)
(4.13131 -1.1485e-13 0)
(4.13131 -1.26288e-13 0)
(4.13131 -1.20134e-13 0)
(4.13131 -1.41351e-13 0)
(4.13131 -1.40488e-13 0)
(4.13131 -4.55879e-14 0)
(4.13131 5.64864e-14 0)
(4.13131 5.90269e-14 0)
(4.13131 5.18189e-14 0)
(4.13131 5.66298e-14 0)
(4.13131 4.40476e-14 0)
(4.13131 2.47343e-14 0)
(4.13131 1.25022e-15 0)
(4.13131 2.55111e-14 0)
(4.13131 -6.41111e-15 0)
(4.13131 -8.07739e-14 0)
(4.13131 -1.61305e-13 0)
(4.13131 -2.05912e-13 0)
(4.13131 -1.85731e-13 0)
(4.13131 -9.49497e-15 0)
(4.13131 -2.56911e-14 0)
(4.13131 1.24788e-14 0)
(4.13131 2.66913e-14 0)
(4.13131 -6.16773e-15 0)
(4.13131 -4.15172e-14 0)
(4.13131 -6.29842e-14 0)
(4.13131 -5.06121e-14 0)
(4.13131 -1.21154e-14 0)
(4.13131 -2.18838e-14 0)
(4.13131 -9.19992e-14 0)
(4.13131 -8.4718e-14 0)
(4.13131 -5.03954e-14 0)
(4.13131 -2.47809e-14 0)
(4.13131 -1.25555e-14 0)
(4.13131 -8.53447e-14 0)
(4.13131 -1.1459e-13 0)
(4.13131 -1.45842e-13 0)
(4.13131 -1.08519e-13 0)
(4.13131 -1.72163e-14 0)
(4.13131 -5.797e-14 0)
(4.13131 -9.62233e-14 0)
(4.13131 -1.61014e-13 0)
(4.13131 -1.60808e-13 0)
(4.13131 -1.22251e-13 0)
(4.13131 -6.04371e-14 0)
(4.13131 5.66431e-15 0)
(4.13131 3.09987e-14 0)
(4.13131 2.62612e-14 0)
(4.13131 4.37342e-14 0)