/*--------------------------------*- C++ -*----------------------------------*\
| =========                 |                                                 |
| \\      /  F ield         | OpenFOAM: The Open Source CFD Toolbox           |
|  \\    /   O peration     | Version:  2206                                  |
|   \\  /    A nd           | Website:  www.openfoam.com                      |
|    \\/     M anipulation  |                                                 |
\*---------------------------------------------------------------------------*/
FoamFile
{
    version     2.0;
    format      ascii;
    arch        "LSB;label=32;scalar=64";
    class       volScalarField;
    location    "0.08";
    object      rho;
}
// * * * * * * * * * * * * * * * * * * * * * * * * * * * * * * * * * * * * * //

dimensions      [1 -3 0 0 0 0 0];

internalField   nonuniform List<scalar> 
4800
(
1.40001
1.40001
1.40001
1.40001
1.40001
1.40001
1.40001
1.40001
1.40001
1.40001
1.40001
1.40001
1.40001
1.40001
1.40001
1.40001
1.40001
1.40001
1.40001
1.40001
1.40001
1.40001
1.40001
1.40001
1.40001
1.40001
1.40001
1.40001
1.40001
1.40001
1.40001
1.40001
1.40001
1.40001
1.40001
1.40001
1.40001
1.40001
1.40001
1.40001
1.40001
1.40001
1.40001
1.40001
1.40001
1.40001
1.40001
1.40001
1.40001
1.40001
1.40001
1.40001
1.40001
1.40001
1.40001
1.40001
1.40001
1.40001
1.40001
1.40001
1.40001
1.40001
1.40001
1.40001
1.40001
1.40001
1.40001
1.40001
1.40001
1.40001
1.40001
1.40001
1.40001
1.40001
1.40001
1.40001
1.40001
1.40001
1.40001
1.40001
1.40001
1.40001
1.40001
1.40001
1.40001
1.40001
1.40001
1.40001
1.40001
1.40001
1.40001
1.40001
1.40001
1.40001
1.40001
1.40001
1.40001
1.40001
1.40001
1.40001
1.40001
1.40001
1.40001
1.40001
1.40001
1.40001
1.40001
1.40001
1.40001
1.40001
1.40001
1.40001
1.40001
1.40001
1.40001
1.40001
1.40001
1.40001
1.40001
1.40001
1.40001
1.40001
1.40001
1.40001
1.40001
1.40001
1.40001
1.40001
1.40001
1.40001
1.40001
1.40001
1.40001
1.40001
1.40001
1.40001
1.40001
1.40001
1.40001
1.40001
1.40001
1.40001
1.40001
1.40001
1.40001
1.40001
1.40001
1.40001
1.40001
1.40001
1.40001
1.40001
1.40001
1.40001
1.40001
1.40001
1.40001
1.40001
1.40001
1.40001
1.40001
1.40001
1.40001
1.40001
1.40001
1.40001
1.40001
1.40001
1.40001
1.40001
1.40001
1.40001
1.40001
1.40001
1.40001
1.40001
1.40001
1.40001
1.40001
1.40001
1.40001
1.40001
1.40001
1.40001
1.40001
1.40001
1.40001
1.40001
1.40001
1.40001
1.40001
1.40001
1.40001
1.40001
1.40001
1.40001
1.40001
1.40001
1.40001
1.40001
1.40001
1.40001
1.40001
1.40001
1.40001
1.40001
1.40001
1.40001
1.40001
1.40001
1.40001
1.40001
1.40001
1.40001
1.40001
1.40001
1.40001
1.40001
1.40001
1.40001
1.40001
1.40001
1.40001
1.40001
1.40001
1.40001
1.40001
1.40001
1.40001
1.40001
1.40001
1.40001
1.40001
1.40001
1.40001
1.40001
1.40001
1.40001
1.40001
1.40001
1.40001
1.40001
1.40001
1.40001
1.40001
1.40001
1.40001
1.40001
1.40001
1.40001
1.40001
1.40001
1.40001
1.40001
1.40001
1.40001
1.40001
1.40001
1.40001
1.40001
1.40001
1.40001
1.40001
1.40001
1.40001
1.40001
1.40001
1.40001
1.40001
1.40001
1.40001
1.40001
1.40001
1.40001
1.40001
1.40001
1.40001
1.40001
1.40001
1.40001
1.40001
1.40001
1.40001
1.40001
1.40001
1.40001
1.40001
1.40001
1.40001
1.40001
1.40001
1.40001
1.40001
1.40001
1.40001
1.40001
1.40001
1.40001
1.40001
1.40001
1.40001
1.40001
1.40001
1.40001
1.40001
1.40001
1.40001
1.40001
1.40001
1.40001
1.40001
1.40001
1.40001
1.40001
1.40001
1.40001
1.40001
1.40001
1.40001
1.40001
1.40001
1.40001
1.40001
1.40001
1.40001
1.40001
1.40001
1.40001
1.40001
1.40001
1.40001
1.40001
1.40001
1.40001
1.40001
1.40001
1.40001
1.40001
1.40001
1.40001
1.40001
1.40001
1.40001
1.40001
1.40001
1.40001
1.40001
1.40001
1.40001
1.40001
1.40001
1.40001
1.40001
1.40001
1.40001
1.40001
1.40001
1.40001
1.40001
1.40001
1.40001
1.40001
1.40001
1.40001
1.40001
1.40001
1.40001
1.40001
1.40001
1.40001
1.40001
1.40001
1.40001
1.40001
1.40001
1.40001
1.40001
1.40001
1.40001
1.40001
1.40001
1.40001
1.40001
1.40001
1.40001
1.40001
1.40001
1.40001
1.40001
1.40001
1.40001
1.40001
1.40001
1.40001
1.40001
1.40001
1.40001
1.40001
1.40001
1.40001
1.40001
1.40001
1.40001
1.40001
1.40001
1.40001
1.40001
1.40001
1.40001
1.40001
1.40001
1.40001
1.40001
1.40001
1.40001
1.40001
1.40001
1.40001
1.40001
1.40001
1.40001
1.40001
1.40001
1.40001
1.40001
1.40001
1.40001
1.40001
1.40001
1.40001
1.40001
1.40001
1.40001
1.40001
1.40001
1.40001
1.40001
1.40001
1.40001
1.40001
1.40001
1.40001
1.40001
1.40001
1.40001
1.40001
1.40001
1.40001
1.40001
1.40001
1.40001
1.40001
1.40001
1.40001
1.40001
1.40001
1.40001
1.40001
1.40001
1.40001
1.40001
1.40001
1.40001
1.40001
1.40001
1.40001
1.40001
1.40001
1.40001
1.40001
1.40001
1.40001
1.40001
1.40001
1.40001
1.40001
1.40001
1.40001
1.40001
1.40001
1.40001
1.40001
1.40001
1.40001
1.40001
1.40001
1.40001
1.40001
1.40001
1.40001
1.40001
1.40001
1.40001
1.40001
1.40001
1.40001
1.40001
1.40001
1.40001
1.40001
1.40001
1.40001
1.40001
1.40001
1.40001
1.40001
1.40001
1.40001
1.40001
1.40001
1.40001
1.40001
1.40001
1.40001
1.40001
1.40001
1.40001
1.40001
1.40001
1.40001
1.40001
1.40001
1.40001
1.40001
1.40001
1.40001
1.40001
1.40001
1.40001
1.40001
1.40001
1.40001
1.40001
1.40001
1.40001
1.40001
1.40001
1.40001
1.40001
1.40001
1.40001
1.40001
1.40001
1.40001
1.40001
1.40001
1.40001
1.40001
1.40001
1.40001
1.40001
1.40001
1.40001
1.40001
1.40001
1.40001
1.40001
1.40001
1.40001
1.40001
1.40001
1.40001
1.40001
1.40001
1.40001
1.40001
1.40001
1.40001
1.40001
1.40001
1.40001
1.40001
1.40001
1.40001
1.40001
1.40001
1.40001
1.40001
1.40001
1.40001
1.40001
1.40001
1.40001
1.40001
1.40001
1.40001
1.40001
1.40001
1.40001
1.40001
1.40001
1.40001
1.40001
1.40001
1.40001
1.40001
1.40001
1.40001
1.40001
1.40001
1.40001
1.40001
1.40001
1.40001
1.40001
1.40001
1.40001
1.40001
1.40001
1.40001
1.40001
1.40001
1.40001
1.40001
1.40001
1.40001
1.40001
1.40001
1.40001
1.40001
1.40001
1.40001
1.40001
1.40001
1.40001
1.40001
1.40001
1.40001
1.40001
1.40001
1.40001
1.40001
1.40001
1.40001
1.40001
1.40001
1.40001
1.40001
1.40001
1.40001
1.40001
1.40001
1.40001
1.40001
1.40001
1.40001
1.40001
1.40001
1.40001
1.40001
1.40001
1.40001
1.40001
1.40001
1.40001
1.40001
1.40001
1.40001
1.40001
1.40001
1.40001
1.40001
1.40001
1.40001
1.40001
1.40001
1.40001
1.40001
1.40001
1.40001
1.40001
1.40001
1.40001
1.40001
1.40001
1.40001
1.40001
1.40001
1.40001
1.40001
1.40001
1.40001
1.40001
1.40001
1.40001
1.40001
1.40001
1.40001
1.40001
1.40001
1.40001
1.40001
1.40001
1.40001
1.40001
1.40001
1.40001
1.40001
1.40001
1.40001
1.40001
1.40001
1.40001
1.40001
1.40001
1.40001
1.40001
1.40001
1.40001
1.40001
1.40001
1.40001
1.40001
1.40001
1.40001
1.40001
1.40001
1.40001
1.40001
1.40001
1.40001
1.40001
1.40001
1.40001
1.40001
1.40001
1.40001
1.40001
1.40001
1.40001
1.40001
1.40001
1.40001
1.40001
1.40001
1.40001
1.40001
1.40001
1.40001
1.40001
1.40001
1.40001
1.40001
1.40001
1.40001
1.40001
1.40001
1.40001
1.40001
1.40001
1.40001
1.40001
1.40001
1.40001
1.40001
1.40001
1.40001
1.40001
1.40001
1.40001
1.40001
1.40001
1.40001
1.40001
1.40001
1.40001
1.40001
1.40001
1.40001
1.40001
1.40001
1.40001
1.40001
1.40001
1.40001
1.40001
1.40001
1.40001
1.40001
1.40001
1.40001
1.40001
1.40001
1.40001
1.40001
1.40001
1.40001
1.40001
1.40001
1.40001
1.40001
1.40001
1.40001
1.40001
1.40001
1.40001
1.40001
1.40001
1.40001
1.40001
1.40001
1.40001
1.40001
1.40001
1.40001
1.40001
1.40001
1.40001
1.40001
1.40001
1.40001
1.40001
1.40001
1.40001
1.40001
1.40001
1.40001
1.40001
1.40001
1.40001
1.40001
1.40001
1.40001
1.40001
1.40001
1.40001
1.40001
1.40001
1.40001
1.40001
1.40001
1.40001
1.40001
1.40001
1.40001
1.40001
1.40001
1.40001
1.40001
1.40001
1.40001
1.40001
1.40001
1.40001
1.40001
1.40001
1.40001
1.40001
1.40001
1.40001
1.40001
1.40001
1.40001
1.40001
1.40001
1.40001
1.40001
1.40001
1.40001
1.40001
1.40001
1.40001
1.40001
1.40001
1.40001
1.40001
1.40001
1.40001
1.40001
1.40001
1.40001
1.40001
1.40001
1.40001
1.40001
1.40001
1.40001
1.40001
1.40001
1.40001
1.40001
1.40001
1.40001
1.40001
1.40001
1.40001
1.40001
1.40001
1.40001
1.40001
1.40001
1.40001
1.40001
1.40001
1.40001
1.40001
1.40001
1.40001
1.40001
1.40001
1.40001
1.40001
1.40001
1.40001
1.40001
1.40001
1.40001
1.40001
1.40001
1.40001
1.40001
1.40001
1.40001
1.40001
1.40001
1.40001
1.40001
1.40001
1.40001
1.40001
1.40001
1.40001
1.40001
1.40001
1.40001
1.40001
1.40001
1.40001
1.40001
1.40001
1.40001
1.40001
1.40001
1.40001
1.40001
1.40001
1.40001
1.40001
1.40001
1.40001
1.40001
1.40001
1.40001
1.40001
1.40001
1.40001
1.40001
1.40001
1.40001
1.40001
1.40001
1.40001
1.40001
1.40001
1.40001
1.40001
1.40001
1.40001
1.40001
1.40001
1.40001
1.40001
1.40001
1.40001
1.40001
1.40001
1.40001
1.40001
1.40001
1.40001
1.40001
1.40001
1.40001
1.40001
1.40001
1.40001
1.40001
1.40001
1.40001
1.40001
1.40001
1.40001
1.40001
1.40001
1.40001
1.40001
1.40001
1.40001
1.40001
1.40001
1.40001
1.40001
1.40001
1.40001
1.40001
1.40001
1.40001
1.40001
1.40001
1.40001
1.40001
1.40001
1.40001
1.40001
1.40001
1.40001
1.40001
1.40001
1.40001
1.40001
1.40001
1.40001
1.40001
1.40001
1.40001
1.40001
1.40001
1.40001
1.40001
1.40001
1.40001
1.40001
1.40001
1.40001
1.40001
1.40001
1.40001
1.40001
1.40001
1.40001
1.40001
1.40001
1.40001
1.40001
1.40001
1.40001
1.40001
1.40001
1.40001
1.40001
1.40001
1.40001
1.40001
1.40001
1.40001
1.40001
1.40001
1.40001
1.40001
1.40001
1.40001
1.40001
1.40001
1.40001
1.40001
1.40001
1.40001
1.40001
1.40001
1.40001
1.40001
1.40001
1.40001
1.40001
1.40001
1.40001
1.40001
1.40001
1.40001
1.40001
1.40001
1.40001
1.40001
1.40001
1.40001
1.40001
1.40001
1.40001
1.40001
1.40001
1.40001
1.40001
1.40001
1.40001
1.40001
1.40001
1.40001
1.40001
1.40001
1.40001
1.40001
1.40001
1.40001
1.40001
1.40001
1.40001
1.40001
1.40001
1.40001
1.40001
1.40001
1.40001
1.40001
1.40001
1.40001
1.40001
1.40001
1.40001
1.40001
1.40001
1.40001
1.40001
1.40001
1.40001
1.40001
1.40001
1.40001
1.40001
1.40001
1.40001
1.40001
1.40001
1.40001
1.40001
1.40001
1.40001
1.40001
1.40001
1.40001
1.40001
1.40001
1.40001
1.40001
1.40001
1.40001
1.40001
1.40001
1.40001
1.40001
1.40001
1.40001
1.40001
1.40001
1.40001
1.40001
1.40001
1.40001
1.40001
1.40001
1.40001
1.40001
1.40001
1.40001
1.40001
1.40001
1.40001
1.40001
1.40001
1.40001
1.40001
1.40001
1.40001
1.40001
1.40001
1.40001
1.40001
1.40001
1.40001
1.40001
1.40001
1.40001
1.40001
1.40001
1.40001
1.40001
1.40001
1.40001
1.40001
1.40001
1.40001
1.40001
1.40001
1.40001
1.40001
1.40001
1.40001
1.40001
1.40001
1.40001
1.40001
1.40001
1.40001
1.40001
1.40001
1.40001
1.40001
1.40001
1.40001
1.40001
1.40001
1.40001
1.40001
1.40001
1.40001
1.40001
1.40001
1.40001
1.40001
1.40001
1.40001
1.40001
1.40001
1.40001
1.40001
1.40001
1.40001
1.40001
1.40001
1.40001
1.40001
1.40001
1.40001
1.40001
1.40001
1.40001
1.40001
1.40001
1.40001
1.40001
1.40001
1.40001
1.40001
1.40001
1.40001
1.40001
1.40001
1.40001
1.40001
1.40001
1.40001
1.40001
1.40001
1.40001
1.40001
1.40001
1.40001
1.40001
1.40001
1.40001
1.40001
1.40001
1.40001
1.40001
1.40001
1.40001
1.40001
1.40001
1.40001
1.40001
1.40001
1.40001
1.40001
1.40001
1.40001
1.40001
1.40001
1.40001
1.40001
1.40001
1.40001
1.40001
1.40001
1.40001
1.40001
1.40001
1.40001
1.40001
1.40001
1.40001
1.40001
1.40001
1.40001
1.40001
1.40001
1.40001
1.40001
1.40001
1.40001
1.40001
1.40001
1.40001
1.40001
1.40001
1.40001
1.40001
1.40001
1.40001
1.40001
1.40001
1.40001
1.40001
1.40001
1.40001
1.40001
1.40001
1.40001
1.40001
1.40001
1.40001
1.40001
1.40001
1.40001
1.40001
1.40001
1.40001
1.40001
1.40001
1.40001
1.40001
1.40001
1.40001
1.40001
1.40001
1.40001
1.40001
1.40001
1.40001
1.40001
1.40001
1.40001
1.40001
1.40001
1.40001
1.40001
1.40001
1.40001
1.40001
1.40001
1.40001
1.40001
1.40001
1.40001
1.40001
1.40001
1.40001
1.40001
1.40001
1.40001
1.40001
1.40001
1.40001
1.40001
1.40001
1.40001
1.40001
1.40001
1.40001
1.40001
1.40001
1.40001
1.40001
1.40001
1.40001
1.40001
1.40001
1.40001
1.40001
1.40001
1.40001
1.40001
1.40001
1.40001
1.40001
1.40001
1.40001
1.40001
1.40001
1.40001
1.40001
1.40001
1.40001
1.40001
1.40001
1.40001
1.40001
1.40001
1.40001
1.40001
1.40001
1.40001
1.40001
1.40001
1.40001
1.40001
1.40001
1.40001
1.40001
1.40001
1.40001
1.40001
1.40001
1.40001
1.40001
1.40001
1.40001
1.40001
1.40001
1.40001
1.40001
1.40001
1.40001
1.40001
1.40001
1.40001
1.40001
1.40001
1.40001
1.40001
1.40001
1.40001
1.40001
1.40001
1.40001
1.40001
1.40001
1.40001
1.40001
1.40001
1.40001
1.40001
1.40001
1.40001
1.40001
1.40001
1.40001
1.40001
1.40001
1.40001
1.40001
1.40001
1.40001
1.40001
1.40001
1.40001
1.40001
1.40001
1.40001
1.40001
1.40001
1.40001
1.40001
1.40001
1.40001
1.40001
1.40001
1.40001
1.40001
1.40001
1.40001
1.40001
1.40001
1.40001
1.40001
1.40001
1.40001
1.40001
1.40001
1.40001
1.40001
1.40001
1.40001
1.40001
1.40001
1.40001
1.40001
1.40001
1.40001
1.40001
1.40001
1.40001
1.40001
1.40001
1.40001
1.40001
1.40001
1.40001
1.40001
1.40001
1.40001
1.40001
1.40001
1.40001
1.40001
1.40001
1.40001
1.40001
1.40001
1.40001
1.40001
1.40001
1.40001
1.40001
1.40001
1.40001
1.40001
1.40001
1.40001
1.40001
1.40001
1.40001
1.40001
1.40001
1.40001
1.40001
1.40001
1.40001
1.40001
1.40001
1.40001
1.40001
1.40001
1.40001
1.40001
1.40001
1.40001
1.40001
1.40001
1.40001
1.40001
1.40001
1.40001
1.40001
1.40001
1.40001
1.40001
1.40001
1.40001
1.40001
1.40001
1.40001
1.40001
1.40001
1.40001
1.40001
1.40001
1.40001
1.40001
1.40001
1.40001
1.40001
1.40001
1.40001
1.40001
1.40001
1.40001
1.40001
1.40001
1.40001
1.40001
1.40001
1.40001
1.40001
1.40001
1.40001
1.40001
1.40001
1.40001
1.40001
1.40001
1.40001
1.40001
1.40001
1.40001
1.40001
1.40001
1.40001
1.40001
1.40001
1.40001
1.40001
1.40001
1.40001
1.40001
1.40001
1.40001
1.40001
1.40001
1.40001
1.40001
1.40001
1.40001
1.40001
1.40001
1.40001
1.40001
1.40001
1.40001
1.40001
1.40001
1.40001
1.65474
2.03405
2.41195
2.8042
3.24646
3.52188
3.7533
4.11068
4.25147
4.35563
4.40294
4.37893
4.28341
4.08781
3.85272
3.64575
3.52436
3.40445
3.33579
3.33693
3.34361
3.35759
3.3758
3.39628
3.42783
3.44783
3.45583
3.45852
3.45742
3.45974
3.47259
3.48018
3.4793
3.47437
3.46666
3.46097
3.45951
3.46238
3.46829
3.47383
3.47954
3.48528
3.48949
3.49115
3.49082
3.48751
3.48152
3.47305
3.46306
3.45628
3.45394
3.45258
3.45235
3.45521
3.45292
3.44302
3.42949
3.41523
3.39555
3.37236
3.35646
3.34897
3.3435
3.33754
3.33259
3.3302
3.32806
3.32478
3.31915
3.31305
3.3106
3.30947
3.30898
3.30885
3.30932
3.31107
3.31266
3.31428
3.31452
3.31301
1.3996
1.40442
1.44044
1.48178
1.56897
1.76506
1.97053
2.22696
2.552
2.87036
3.13125
3.36801
3.53236
3.56391
3.69887
3.70964
3.6536
3.62006
3.55677
3.52574
3.49468
3.46784
3.43897
3.4046
3.39948
3.40373
3.41721
3.42678
3.43099
3.4417
3.46021
3.46705
3.46672
3.46438
3.46303
3.4619
3.45964
3.45861
3.45806
3.45722
3.45744
3.46233
3.46995
3.47623
3.47818
3.47689
3.47451
3.47398
3.47362
3.47172
3.47035
3.46746
3.4618
3.45451
3.44379
3.42825
3.40785
3.38598
3.36293
3.34831
3.34406
3.34247
3.34114
3.33987
3.33714
3.33359
3.33004
3.32527
3.31742
3.30999
3.30759
3.30666
3.30637
3.3059
3.30569
3.30594
3.30629
3.30824
3.30942
3.30934
1.40001
1.40001
1.4
1.40001
1.39984
1.40017
1.40421
1.42096
1.48341
1.60366
1.85354
2.19657
2.68563
3.17584
3.50274
3.74207
3.7402
3.73164
3.72095
3.68447
3.62661
3.52333
3.4264
3.36867
3.36493
3.37549
3.38968
3.39726
3.40153
3.41028
3.42027
3.42869
3.43747
3.444
3.44683
3.45022
3.45241
3.45296
3.45085
3.44375
3.43697
3.43588
3.43729
3.43953
3.44299
3.44832
3.45648
3.464
3.46688
3.46846
3.46875
3.4668
3.4625
3.45427
3.43971
3.41792
3.39284
3.36394
3.33639
3.32907
3.32743
3.32829
3.33192
3.33289
3.33181
3.3288
3.32529
3.32099
3.31387
3.30645
3.30375
3.30258
3.30124
3.30002
3.29909
3.29987
3.30442
3.30886
3.31129
3.31126
1.40001
1.40001
1.40001
1.40001
1.40001
1.40001
1.40001
1.4
1.40001
1.39975
1.40165
1.41616
1.4905
1.741
2.10858
2.66924
3.0468
3.32885
3.517
3.52606
3.53851
3.55362
3.52438
3.48457
3.45814
3.44159
3.41928
3.3946
3.35178
3.34167
3.34388
3.35494
3.37753
3.40291
3.42155
3.43338
3.43682
3.43674
3.43385
3.42706
3.41805
3.41472
3.41443
3.41552
3.41653
3.41787
3.42261
3.43119
3.44023
3.4485
3.4548
3.4557
3.45131
3.44207
3.42703
3.40543
3.3795
3.34591
3.32088
3.31564
3.31398
3.3139
3.31716
3.31812
3.31648
3.31435
3.31237
3.30925
3.30372
3.29736
3.29467
3.2931
3.29088
3.28837
3.28773
3.29037
3.29724
3.30321
3.30698
3.30734
1.40001
1.40001
1.40001
1.40001
1.40001
1.40001
1.40001
1.40001
1.40001
1.4
1.4
1.40001
1.39987
1.40086
1.41447
1.50102
1.78109
2.14202
2.64098
3.00841
3.3614
3.54015
3.55371
3.56418
3.55571
3.53138
3.4854
3.40868
3.33873
3.3252
3.32775
3.3397
3.3554
3.3664
3.38138
3.39387
3.39982
3.40485
3.40722
3.40897
3.40721
3.40529
3.40879
3.40912
3.40787
3.40549
3.4041
3.40485
3.40793
3.41109
3.41494
3.42077
3.42347
3.41959
3.40897
3.39039
3.3655
3.33836
3.31488
3.30703
3.30479
3.30512
3.30628
3.30454
3.30067
3.29547
3.29011
3.28517
3.28194
3.28035
3.27959
3.27957
3.2796
3.28014
3.28126
3.28395
3.28778
3.29351
3.29882
3.29841
1.40001
1.40001
1.40001
1.40001
1.40001
1.40001
1.40001
1.40001
1.40001
1.40001
1.40001
1.40001
1.4
1.4
1.40001
1.3999
1.40214
1.41797
1.51833
1.79978
2.18135
2.67051
2.99684
3.30437
3.42787
3.43241
3.44122
3.44579
3.41485
3.3888
3.3882
3.38474
3.37459
3.35941
3.34109
3.34058
3.34379
3.35461
3.37102
3.38795
3.40189
3.4125
3.41966
3.42064
3.41945
3.41403
3.40276
3.39565
3.3934
3.39175
3.39019
3.38952
3.39107
3.39068
3.38439
3.37046
3.34976
3.32897
3.31259
3.30547
3.30264
3.30196
3.29992
3.29576
3.28983
3.28113
3.27116
3.26506
3.26233
3.26097
3.2617
3.26539
3.26917
3.27212
3.27515
3.27676
3.27859
3.28441
3.2917
3.29406
1.40001
1.40001
1.40001
1.40001
1.40001
1.40001
1.40001
1.40001
1.40001
1.40001
1.40001
1.40001
1.40001
1.4
1.4
1.4
1.4
1.40001
1.39997
1.40322
1.42464
1.55608
1.84418
2.24352
2.70723
3.03847
3.348
3.43115
3.47132
3.4754
3.46818
3.44808
3.41023
3.37397
3.33759
3.3282
3.32964
3.33736
3.34985
3.36558
3.3873
3.40986
3.42043
3.42237
3.42221
3.41985
3.41464
3.40268
3.39293
3.38794
3.38356
3.37907
3.37603
3.37315
3.36652
3.35219
3.33201
3.31507
3.30697
3.30297
3.30095
3.29838
3.29351
3.28644
3.27763
3.26711
3.25887
3.25617
3.2538
3.25215
3.25196
3.25574
3.26274
3.26935
3.27401
3.27701
3.28007
3.28188
3.28475
3.28835
1.40001
1.40001
1.40001
1.40001
1.40001
1.40001
1.40001
1.40001
1.40001
1.40001
1.40001
1.40001
1.40001
1.40001
1.40001
1.40001
1.4
1.4
1.4
1.40001
1.39998
1.40017
1.40531
1.43374
1.60246
1.90742
2.33809
2.74804
3.07182
3.34829
3.3903
3.40286
3.42568
3.4257
3.40375
3.38406
3.36955
3.35595
3.35562
3.35946
3.36453
3.37475
3.38724
3.39922
3.40995
3.41695
3.41976
3.42142
3.4213
3.41778
3.41028
3.39811
3.38511
3.37663
3.36606
3.34882
3.32612
3.30684
3.29571
3.28934
3.28552
3.28131
3.27531
3.27083
3.26777
3.2647
3.26124
3.25514
3.2507
3.24862
3.24778
3.25036
3.25824
3.26627
3.27066
3.27399
3.27934
3.28469
3.28538
3.28576
1.40001
1.40001
1.40001
1.40001
1.40001
1.40001
1.40001
1.40001
1.40001
1.40001
1.40001
1.40001
1.40001
1.40001
1.40001
1.40001
1.40001
1.40001
1.40001
1.40001
1.4
1.4
1.40001
1.39997
1.40071
1.40903
1.45644
1.67021
2.00072
2.49041
2.85581
3.17472
3.37528
3.43329
3.45311
3.44812
3.42628
3.39741
3.38426
3.37073
3.36621
3.36242
3.36185
3.36551
3.3726
3.38579
3.40303
3.42083
3.43318
3.43484
3.4316
3.42562
3.41546
3.40022
3.38031
3.35476
3.3278
3.30722
3.29158
3.27873
3.26972
3.26336
3.26019
3.25887
3.26058
3.26273
3.26073
3.2586
3.25679
3.25492
3.25391
3.25396
3.2565
3.2615
3.26571
3.27086
3.27762
3.28446
3.28563
3.28365
1.40001
1.40001
1.40001
1.40001
1.40001
1.40001
1.40001
1.40001
1.40001
1.40001
1.40001
1.40001
1.40001
1.40001
1.40001
1.40001
1.40001
1.40001
1.40001
1.40001
1.40001
1.4
1.4
1.4
1.4
1.40001
1.39999
1.40208
1.41593
1.50617
1.78026
2.14861
2.60905
2.94648
3.255
3.40208
3.4097
3.41041
3.44141
3.44632
3.43524
3.41286
3.38697
3.36811
3.36305
3.36562
3.37651
3.39319
3.41304
3.42722
3.43297
3.43176
3.42492
3.41229
3.39541
3.37289
3.34792
3.32858
3.31195
3.29312
3.27422
3.26401
3.26015
3.25806
3.25746
3.25891
3.26046
3.26078
3.26082
3.26092
3.26144
3.26327
3.26524
3.26592
3.26924
3.27375
3.27696
3.28197
3.28673
3.28781
1.40001
1.40001
1.40001
1.40001
1.40001
1.40001
1.40001
1.40001
1.40001
1.40001
1.40001
1.40001
1.40001
1.40001
1.40001
1.40001
1.40001
1.40001
1.40001
1.40001
1.40001
1.40001
1.40001
1.40001
1.40001
1.4
1.4
1.40001
1.39999
1.4002
1.40572
1.43246
1.58478
1.90346
2.37197
2.7903
3.09181
3.30108
3.41147
3.47366
3.48013
3.47178
3.45063
3.42526
3.40179
3.38697
3.3852
3.39241
3.4037
3.40966
3.40914
3.40777
3.40742
3.40487
3.39565
3.37671
3.35289
3.33426
3.32093
3.31086
3.29995
3.28604
3.27166
3.26413
3.26135
3.26057
3.26172
3.26268
3.26298
3.26346
3.26405
3.26457
3.26699
3.2745
3.28126
3.28247
3.28198
3.28417
3.28915
3.29093
1.40001
1.40001
1.40001
1.40001
1.40001
1.40001
1.40001
1.40001
1.40001
1.40001
1.40001
1.40001
1.40001
1.40001
1.40001
1.40001
1.40001
1.40001
1.40001
1.40001
1.40001
1.40001
1.40001
1.40001
1.40001
1.40001
1.40001
1.40001
1.4
1.4
1.40001
1.39999
1.40122
1.41312
1.47771
1.74165
2.13338
2.59164
2.92567
3.22187
3.39908
3.44515
3.44407
3.45218
3.46483
3.45971
3.44835
3.44098
3.4311
3.41689
3.40579
3.39937
3.39625
3.39367
3.38421
3.36484
3.33973
3.32457
3.31906
3.31516
3.31007
3.30538
3.29708
3.2849
3.27704
3.27321
3.2709
3.26899
3.26841
3.26916
3.26861
3.26693
3.26847
3.28123
3.29461
3.29443
3.29149
3.29097
3.29272
3.29467
1.40001
1.40001
1.40001
1.40001
1.40001
1.40001
1.40001
1.40001
1.40001
1.40001
1.40001
1.40001
1.40001
1.40001
1.40001
1.40001
1.40001
1.40001
1.40001
1.40001
1.40001
1.40001
1.40001
1.40001
1.40001
1.40001
1.40001
1.40001
1.40001
1.4
1.4
1.4
1.4
1.4
1.40016
1.40618
1.43604
1.581
1.93447
2.4215
2.84247
3.1079
3.2799
3.38486
3.45276
3.4727
3.47906
3.48638
3.48511
3.47322
3.45398
3.43296
3.4149
3.40132
3.38722
3.36679
3.33567
3.31216
3.30523
3.30405
3.311
3.31167
3.30675
3.29732
3.28691
3.283
3.28098
3.28085
3.28479
3.28524
3.28018
3.27622
3.2759
3.28729
3.30411
3.30483
3.30132
3.29907
3.29859
3.30032
1.40001
1.40001
1.40001
1.40001
1.40001
1.40001
1.40001
1.40001
1.40001
1.40001
1.40001
1.40001
1.40001
1.40001
1.40001
1.40001
1.40001
1.40001
1.40001
1.40001
1.40001
1.40001
1.40001
1.40001
1.40001
1.40001
1.40001
1.40001
1.40001
1.40001
1.40001
1.40001
1.40001
1.4
1.4
1.40001
1.40002
1.40163
1.41939
1.4957
1.79705
2.26409
2.74032
3.02268
3.25367
3.35352
3.41935
3.46834
3.48626
3.48675
3.4802
3.46709
3.45307
3.44046
3.42408
3.39691
3.35421
3.31705
3.30739
3.30497
3.30669
3.31119
3.30678
3.29544
3.2863
3.28397
3.28304
3.28623
3.30039
3.30303
3.29674
3.29139
3.28955
3.29619
3.31213
3.31566
3.31322
3.30851
3.30581
3.30663
1.40001
1.40001
1.40001
1.40001
1.40001
1.40001
1.40001
1.40001
1.40001
1.40001
1.40001
1.40001
1.40001
1.40001
1.40001
1.40001
1.40001
1.40001
1.40001
1.40001
1.40001
1.40001
1.40001
1.40001
1.40001
1.40001
1.40001
1.40001
1.40001
1.40001
1.40001
1.40001
1.40001
1.40001
1.4
1.4
1.4
1.40001
1.4
1.4004
1.41204
1.46703
1.67546
2.10634
2.69406
3.02598
3.20557
3.3161
3.41239
3.43975
3.44718
3.45659
3.4588
3.4569
3.44655
3.42689
3.39878
3.35904
3.32922
3.31973
3.31703
3.31928
3.31454
3.29953
3.28724
3.28357
3.28202
3.28495
3.30394
3.31705
3.31307
3.30712
3.30542
3.30775
3.31752
3.32589
3.32522
3.31951
3.31174
3.31079
1.40001
1.40001
1.40001
1.40001
1.40001
1.40001
1.40001
1.40001
1.40001
1.40001
1.40001
1.40001
1.40001
1.40001
1.40001
1.40001
1.40001
1.40001
1.40001
1.40001
1.40001
1.40001
1.40001
1.40001
1.40001
1.40001
1.40001
1.40001
1.40001
1.40001
1.40001
1.40001
1.40001
1.40001
1.40001
1.40001
1.40001
1.4
1.4
1.4
1.4
1.40019
1.40545
1.44845
1.61194
2.04608
2.61441
3.05844
3.24024
3.33508
3.35703
3.37185
3.38616
3.403
3.41936
3.42372
3.41271
3.38171
3.33911
3.3256
3.3234
3.32551
3.3305
3.32358
3.30899
3.29182
3.28467
3.28529
3.30071
3.32425
3.32753
3.32274
3.31888
3.31799
3.31965
3.32591
3.32879
3.32609
3.31838
3.31468
1.40001
1.40001
1.40001
1.40001
1.40001
1.40001
1.40001
1.40001
1.40001
1.40001
1.40001
1.40001
1.40001
1.40001
1.40001
1.40001
1.40001
1.40001
1.40001
1.40001
1.40001
1.40001
1.40001
1.40001
1.40001
1.40001
1.40001
1.40001
1.40001
1.40001
1.40001
1.40001
1.40001
1.40001
1.40001
1.40001
1.40001
1.40001
1.40001
1.4
1.4
1.4
1.4
1.40013
1.40305
1.4478
1.59369
1.98738
2.51392
3.12764
3.31583
3.32792
3.35389
3.35174
3.3571
3.3745
3.38521
3.37075
3.33443
3.31378
3.3115
3.31543
3.3309
3.34629
3.34109
3.3196
3.29584
3.29151
3.29773
3.32395
3.34091
3.33843
3.32861
3.32113
3.32053
3.32261
3.32733
3.32844
3.3258
3.31972
1.40001
1.40001
1.40001
1.40001
1.40001
1.40001
1.40001
1.40001
1.40001
1.40001
1.40001
1.40001
1.40001
1.40001
1.40001
1.40001
1.40001
1.40001
1.40001
1.40001
1.40001
1.40001
1.40001
1.40001
1.40001
1.40001
1.40001
1.40001
1.40001
1.40001
1.40001
1.40001
1.40001
1.40001
1.40001
1.40001
1.40001
1.40001
1.40001
1.40001
1.40001
1.4
1.4
1.4
1.4
1.40017
1.40242
1.43828
1.57915
1.9927
2.55499
3.0673
3.35258
3.36992
3.3717
3.37798
3.37228
3.35968
3.33268
3.29886
3.28277
3.28103
3.30032
3.33919
3.35082
3.3435
3.31902
3.3013
3.30166
3.31739
3.34139
3.34671
3.34016
3.32461
3.3166
3.3158
3.32114
3.32898
3.33091
3.32695
1.40001
1.40001
1.40001
1.40001
1.40001
1.40001
1.40001
1.40001
1.40001
1.40001
1.40001
1.40001
1.40001
1.40001
1.40001
1.40001
1.40001
1.40001
1.40001
1.40001
1.40001
1.40001
1.40001
1.40001
1.40001
1.40001
1.40001
1.40001
1.40001
1.40001
1.40001
1.40001
1.40001
1.40001
1.40001
1.40001
1.40001
1.40001
1.40001
1.40001
1.40001
1.40001
1.40001
1.4
1.4
1.4
1.4
1.40013
1.40254
1.43411
1.63654
2.05707
2.61732
3.07018
3.31809
3.38981
3.39229
3.39028
3.38445
3.35129
3.29365
3.26237
3.26648
3.30103
3.34863
3.35567
3.34496
3.31877
3.30784
3.31115
3.33098
3.34825
3.34874
3.33823
3.31574
3.30887
3.31057
3.32164
3.33255
3.33254
1.40001
1.40001
1.40001
1.40001
1.40001
1.40001
1.40001
1.40001
1.40001
1.40001
1.40001
1.40001
1.40001
1.40001
1.40001
1.40001
1.40001
1.40001
1.40001
1.40001
1.40001
1.40001
1.40001
1.40001
1.40001
1.40001
1.40001
1.40001
1.40001
1.40001
1.40001
1.40001
1.40001
1.40001
1.40001
1.40001
1.40001
1.40001
1.40001
1.40001
1.40001
1.40001
1.40001
1.40001
1.40001
1.4
1.4
1.4
1.4
1.40013
1.40525
1.44619
1.67588
2.15117
2.69031
3.0325
3.21776
3.34438
3.37367
3.37877
3.36777
3.30086
3.26031
3.27049
3.32123
3.35843
3.35854
3.34025
3.30834
3.30196
3.31085
3.33874
3.34777
3.3454
3.33121
3.30802
3.30403
3.30876
3.32494
3.33413
1.40001
1.40001
1.40001
1.40001
1.40001
1.40001
1.40001
1.40001
1.40001
1.40001
1.40001
1.40001
1.40001
1.40001
1.40001
1.40001
1.40001
1.40001
1.40001
1.40001
1.40001
1.40001
1.40001
1.40001
1.40001
1.40001
1.40001
1.40001
1.40001
1.40001
1.40001
1.40001
1.40001
1.40001
1.40001
1.40001
1.40001
1.40001
1.40001
1.40001
1.40001
1.40001
1.40001
1.40001
1.40001
1.40001
1.40001
1.4
1.4
1.4
1.4
1.40024
1.40756
1.46236
1.72997
2.25255
2.73138
2.99695
3.20011
3.35131
3.35849
3.33827
3.27704
3.26897
3.29407
3.34545
3.3628
3.35815
3.3293
3.29559
3.29363
3.30624
3.33617
3.34379
3.34026
3.32653
3.30591
3.30319
3.30961
3.32792
1.40001
1.40001
1.40001
1.40001
1.40001
1.40001
1.40001
1.40001
1.40001
1.40001
1.40001
1.40001
1.40001
1.40001
1.40001
1.40001
1.40001
1.40001
1.40001
1.40001
1.40001
1.40001
1.40001
1.40001
1.40001
1.40001
1.40001
1.40001
1.40001
1.40001
1.40001
1.40001
1.40001
1.40001
1.40001
1.40001
1.40001
1.40001
1.40001
1.40001
1.40001
1.40001
1.40001
1.40001
1.40001
1.40001
1.40001
1.40001
1.40001
1.4
1.4
1.4
1.40001
1.40049
1.41249
1.48918
1.76941
2.26873
2.71363
3.03446
3.28424
3.32104
3.30547
3.26675
3.26167
3.30343
3.35506
3.36305
3.35798
3.32651
3.28712
3.28411
3.29364
3.32313
3.33838
3.33721
3.32714
3.30828
3.3049
3.31401
1.40001
1.40001
1.40001
1.40001
1.40001
1.40001
1.40001
1.40001
1.40001
1.40001
1.40001
1.40001
1.40001
1.40001
1.40001
1.40001
1.40001
1.40001
1.40001
1.40001
1.40001
1.40001
1.40001
1.40001
1.40001
1.40001
1.40001
1.40001
1.40001
1.40001
1.40001
1.40001
1.40001
1.40001
1.40001
1.40001
1.40001
1.40001
1.40001
1.40001
1.40001
1.40001
1.40001
1.40001
1.40001
1.40001
1.40001
1.40001
1.40001
1.40001
1.40001
1.4
1.4
1.4
1.40002
1.40097
1.41421
1.511
1.8232
2.27401
2.73673
3.12714
3.28483
3.26574
3.22279
3.23066
3.29144
3.35266
3.35854
3.35503
3.32756
3.28185
3.27378
3.28242
3.31319
3.3356
3.33823
3.33338
3.31377
3.30853
1.40001
1.40001
1.40001
1.40001
1.40001
1.40001
1.40001
1.40001
1.40001
1.40001
1.40001
1.40001
1.40001
1.40001
1.40001
1.40001
1.40001
1.40001
1.40001
1.40001
1.40001
1.40001
1.40001
1.40001
1.40001
1.40001
1.40001
1.40001
1.40001
1.40001
1.40001
1.40001
1.40001
1.40001
1.40001
1.40001
1.40001
1.40001
1.40001
1.40001
1.40001
1.40001
1.40001
1.40001
1.40001
1.40001
1.40001
1.40001
1.40001
1.40001
1.40001
1.40001
1.40001
1.4
1.4
1.4
1.40003
1.40169
1.41941
1.53282
1.83825
2.3129
2.79661
3.15904
3.24308
3.21478
3.20685
3.24289
3.32406
3.3496
3.34861
3.3295
3.28821
3.27011
3.27514
3.30384
3.33344
3.33979
3.33686
3.31756
1.40001
1.40001
1.40001
1.40001
1.40001
1.40001
1.40001
1.40001
1.40001
1.40001
1.40001
1.40001
1.40001
1.40001
1.40001
1.40001
1.40001
1.40001
1.40001
1.40001
1.40001
1.40001
1.40001
1.40001
1.40001
1.40001
1.40001
1.40001
1.40001
1.40001
1.40001
1.40001
1.40001
1.40001
1.40001
1.40001
1.40001
1.40001
1.40001
1.40001
1.40001
1.40001
1.40001
1.40001
1.40001
1.40001
1.40001
1.40001
1.40001
1.40001
1.40001
1.40001
1.40001
1.40001
1.40001
1.4
1.4
1.4
1.40006
1.40224
1.4234
1.55525
1.8505
2.33808
2.8272
3.16441
3.20242
3.1812
3.20194
3.28273
3.33952
3.34853
3.34003
3.30551
3.27186
3.27238
3.29269
3.32952
3.33957
3.33361
1.40001
1.40001
1.40001
1.40001
1.40001
1.40001
1.40001
1.40001
1.40001
1.40001
1.40001
1.40001
1.40001
1.40001
1.40001
1.40001
1.40001
1.40001
1.40001
1.40001
1.40001
1.40001
1.40001
1.40001
1.40001
1.40001
1.40001
1.40001
1.40001
1.40001
1.40001
1.40001
1.40001
1.40001
1.40001
1.40001
1.40001
1.40001
1.40001
1.40001
1.40001
1.40001
1.40001
1.40001
1.40001
1.40001
1.40001
1.40001
1.40001
1.40001
1.40001
1.40001
1.40001
1.40001
1.40001
1.40001
1.40001
1.4
1.4
1.4
1.4001
1.40284
1.42602
1.56166
1.87828
2.37566
2.89062
3.15533
3.15233
3.17399
3.2488
3.33228
3.3461
3.34696
3.31525
3.26567
3.26305
3.28391
3.32676
3.33791
1.40001
1.40001
1.40001
1.40001
1.40001
1.40001
1.40001
1.40001
1.40001
1.40001
1.40001