/*--------------------------------*- C++ -*----------------------------------*\
| =========                 |                                                 |
| \\      /  F ield         | OpenFOAM: The Open Source CFD Toolbox           |
|  \\    /   O peration     | Version:  2206                                  |
|   \\  /    A nd           | Website:  www.openfoam.com                      |
|    \\/     M anipulation  |                                                 |
\*---------------------------------------------------------------------------*/
FoamFile
{
    version     2.0;
    format      ascii;
    arch        "LSB;label=32;scalar=64";
    class       volVectorField;
    location    "0.16";
    object      U;
}
// * * * * * * * * * * * * * * * * * * * * * * * * * * * * * * * * * * * * * //

dimensions      [0 1 -1 0 0 0 0];

internalField   nonuniform List<vector> 
75
(
(6.11111 -3.44059e-15 0)
(6.11111 -3.42517e-15 0)
(6.11111 5.16756e-17 0)
(6.11111 -6.16773e-17 0)
(6.11111 -3.49644e-16 0)
(6.11111 -1.87949e-16 0)
(6.11111 -4.25157e-15 0)
(6.11111 -4.16614e-15 0)
(6.11111 -4.06654e-15 0)
(6.11111 -3.82627e-15 0)
(6.11111 -3.44059e-15 0)
(6.11111 -3.41976e-15 0)
(6.11111 -6.49654e-15 0)
(6.11111 -6.12898e-15 0)
(6.11111 -1.53891e-15 0)
(6.11111 -3.21931e-15 0)
(6.11111 -7.15123e-16 0)
(6.11111 2.41333e-15 0)
(6.11111 5.293e-15 0)
(6.11111 9.9641e-15 0)
(6.11111 3.21972e-15 0)
(6.11111 3.01635e-15 0)
(6.11111 5.3801e-15 0)
(6.11111 9.90296e-15 0)
(6.11111 1.03814e-14 0)
(6.08806 -0.0331125 0)
(6.04282 0.102846 0)
(6.00518 0.0589076 0)
(5.9374 0.269878 0)
(5.90322 0.270699 0)
(5.81473 0.517335 0)
(5.79124 0.542352 0)
(5.6776 0.815568 0)
(5.70091 0.852186 0)
(5.52751 1.13029 0)
(6.11111 5.92068e-06 0)
(6.11112 1.13068e-05 0)
(6.11933 -0.0179845 0)
(6.09706 0.0430377 0)
(6.09578 0.0333819 0)
(6.01284 0.232721 0)
(5.97825 0.368103 0)
(5.78904 0.824527 0)
(5.7669 1.06374 0)
(5.44959 1.71027 0)
(6.11111 6.15106e-08 0)
(6.11111 -4.36373e-08 0)
(6.11114 -7.19526e-05 0)
(6.11114 -7.18368e-05 0)
(6.11129 -0.000504221 0)
(6.11098 0.000330906 0)
(6.11379 -0.00834813 0)
(6.1052 0.0284043 0)
(6.10146 0.0322824 0)
(5.90389 0.662961 0)
(6.11111 3.07806e-09 0)
(6.11111 3.11979e-09 0)
(6.11111 5.90079e-07 0)
(6.11111 -8.59458e-07 0)
(6.11114 -5.43494e-05 0)
(6.11112 -5.17926e-05 0)
(6.11122 -0.000232774 0)
(6.11129 -0.000745468 0)
(6.11123 -0.000425824 0)
(6.08533 0.103578 0)
(6.11111 -1.30796e-11 0)
(6.11111 3.72454e-10 0)
(6.11111 9.33297e-08 0)
(6.11111 9.29083e-08 0)
(6.11111 1.76307e-07 0)
(6.11111 -7.19734e-06 0)
(6.11111 -1.24218e-06 0)
(6.11114 -0.000108108 0)
(6.1112 -0.00018237 0)
(6.10992 0.00293489 0)
)
;

boundaryField
{
    inlet
    {
        type            fixedValue;
        value           uniform (6.11111 0 0);
    }
    outlet
    {
        type            zeroGradient;
    }
    bottom
    {
        type            symmetryPlane;
    }
    top
    {
        type            symmetryPlane;
    }
    obstacle
    {
        type            slip;
    }
    defaultFaces
    {
        type            empty;
    }
}


// ************************************************************************* //
