/*--------------------------------*- C++ -*----------------------------------*\
| =========                 |                                                 |
| \\      /  F ield         | OpenFOAM: The Open Source CFD Toolbox           |
|  \\    /   O peration     | Version:  2206                                  |
|   \\  /    A nd           | Website:  www.openfoam.com                      |
|    \\/     M anipulation  |                                                 |
\*---------------------------------------------------------------------------*/
FoamFile
{
    version     2.0;
    format      ascii;
    arch        "LSB;label=32;scalar=64";
    class       volVectorField;
    location    "0.02";
    object      U;
}
// * * * * * * * * * * * * * * * * * * * * * * * * * * * * * * * * * * * * * //

dimensions      [0 1 -1 0 0 0 0];

internalField   nonuniform List<vector> 
4800
(
(5.22222 1.87366e-15 0)
(5.22222 2.21038e-15 0)
(5.22222 7.07122e-15 0)
(5.22222 5.17089e-15 0)
(5.22222 3.69964e-14 0)
(5.22222 8.59448e-14 0)
(5.22222 8.93254e-14 0)
(5.22222 6.30042e-14 0)
(5.22222 6.60147e-14 0)
(5.22222 7.10689e-14 0)
(5.22222 6.78117e-14 0)
(5.22222 7.5453e-14 0)
(5.22222 7.36327e-14 0)
(5.22222 3.873e-14 0)
(5.22222 6.33309e-14 0)
(5.22222 1.5561e-13 0)
(5.22222 1.27299e-13 0)
(5.22222 3.69731e-15 0)
(5.22222 -2.17271e-14 0)
(5.22222 -5.48628e-14 0)
(5.22222 -6.22808e-14 0)
(5.22222 -6.7575e-14 0)
(5.22222 -4.28741e-14 0)
(5.22222 6.28208e-14 0)
(5.22222 1.03178e-13 0)
(5.22222 7.46229e-14 0)
(5.22222 -3.39659e-14 0)
(5.22222 -8.95621e-14 0)
(5.22222 -8.65049e-14 0)
(5.22222 -4.53678e-14 0)
(5.22222 -1.99001e-14 0)
(5.22222 -2.64079e-14 0)
(5.22222 6.5588e-14 0)
(5.22222 1.25865e-13 0)
(5.22222 1.1444e-13 0)
(5.22222 1.16473e-13 0)
(5.22222 1.45158e-13 0)
(5.22222 1.02984e-13 0)
(5.22222 -5.68331e-14 0)
(5.22222 -9.10124e-14 0)
(5.22222 -6.81451e-15 0)
(5.22222 -4.33075e-15 0)
(5.22222 2.04602e-14 0)
(5.22222 6.22007e-14 0)
(5.22222 6.10372e-14 0)
(5.22222 6.13106e-14 0)
(5.22222 2.8685e-14 0)
(5.22222 1.09119e-14 0)
(5.22222 3.79699e-14 0)
(5.22222 6.61714e-14 0)
(5.22222 8.86853e-14 0)
(5.22222 1.1605e-13 0)
(5.22222 1.141e-13 0)
(5.22222 4.81683e-14 0)
(5.22222 4.27907e-14 0)
(5.22222 4.75816e-14 0)
(5.22222 5.37426e-15 0)
(5.22222 -1.92433e-14 0)
(5.22222 -1.66362e-14 0)
(5.22222 -5.62731e-14 0)
(5.22222 -5.19756e-14 0)
(5.22222 -3.85833e-14 0)
(5.22222 -1.67862e-14 0)
(5.22222 -8.8682e-16 0)
(5.22222 2.01035e-15 0)
(5.22222 -1.29622e-14 0)
(5.22222 7.54464e-15 0)
(5.22222 -6.78184e-14 0)
(5.22222 -4.94419e-14 0)
(5.22222 -3.00952e-14 0)
(5.22222 -4.39943e-14 0)
(5.22222 -5.69965e-14 0)
(5.22222 2.26339e-14 0)
(5.22222 9.23359e-14 0)
(5.22222 8.14674e-14 0)
(5.22222 8.40912e-14 0)
(5.22222 6.76017e-14 0)
(5.22222 3.03386e-15 0)
(5.22222 -6.09439e-15 0)
(5.22222 -8.7658e-14 0)
(5.22222 -1.25888e-14 0)
(5.22222 -2.68146e-14 0)
(5.22222 -2.22772e-14 0)
(5.22222 -1.04951e-14 0)
(5.22222 -6.65115e-15 0)
(5.22222 -7.1679e-15 0)
(5.22222 -3.2559e-14 0)
(5.22222 -2.7288e-14 0)
(5.22222 2.02702e-15 0)
(5.22222 -2.07236e-14 0)
(5.22222 7.72467e-15 0)
(5.22222 2.1167e-14 0)
(5.22222 3.14421e-14 0)
(5.22222 1.52826e-14 0)
(5.22222 -2.52944e-14 0)
(5.22222 -6.68082e-14 0)
(5.22222 -7.67299e-14 0)
(5.22222 -3.94001e-14 0)
(5.22222 -1.5536e-14 0)
(5.22222 -1.19354e-15 0)
(5.22222 1.36157e-14 0)
(5.22222 1.77464e-14 0)
(5.22222 -4.44743e-15 0)
(5.22222 -5.69365e-14 0)
(5.22222 -5.24391e-14 0)
(5.22222 -3.76765e-14 0)
(5.22222 -2.71414e-14 0)
(5.22222 1.78664e-14 0)
(5.22222 4.50911e-14 0)
(5.22222 7.00388e-14 0)
(5.22222 6.63615e-14 0)
(5.22222 1.02631e-13 0)
(5.22222 1.17734e-13 0)
(5.22222 1.179e-13 0)
(5.22222 6.79751e-14 0)
(5.22222 2.60378e-15 0)
(5.22222 -6.9372e-14 0)
(5.22222 -1.16643e-13 0)
(5.22222 -9.74935e-14 0)
(5.22222 5.24965e-14 0)
(5.22222 9.27494e-15 0)
(5.22222 6.16773e-16 0)
(5.22222 -4.19973e-14 0)
(5.22222 -1.12453e-13 0)
(5.22222 -1.09536e-13 0)
(5.22222 -8.19208e-14 0)
(5.22222 -5.94069e-14 0)
(5.22222 -1.28689e-14 0)
(5.22222 -7.86803e-15 0)
(5.22222 -4.77949e-14 0)
(5.22222 -7.8877e-14 0)
(5.22222 -1.03621e-13 0)
(5.22222 -8.99055e-14 0)
(5.22222 -6.48545e-14 0)
(5.22222 -8.26176e-14 0)
(5.22222 -8.49513e-14 0)
(5.22222 2.05936e-14 0)
(5.22222 5.76033e-14 0)
(5.22222 6.53813e-14 0)
(5.22222 1.55594e-14 0)
(5.22222 1.83298e-14 0)
(5.22222 1.53727e-14 0)
(5.22222 -8.61149e-15 0)
(5.22222 -5.17056e-14 0)
(5.22222 -5.80534e-14 0)
(5.22222 -7.16557e-14 0)
(5.22222 -1.19817e-13 0)
(5.22222 -8.03839e-14 0)
(5.22222 7.16124e-15 0)
(5.22222 1.37437e-13 0)
(5.22222 1.9135e-13 0)
(5.22222 1.95024e-13 0)
(5.22222 1.17467e-13 0)
(5.22222 5.5873e-14 0)
(5.22222 4.0697e-14 0)
(5.22222 -1.1402e-14 0)
(5.22222 -7.84002e-14 0)
(5.22222 -1.82585e-13 0)
(5.22222 -1.534e-13 0)
(5.22222 -7.75567e-14 0)
(5.22222 4.53078e-15 0)
(5.22222 1.24488e-14 0)
(5.22222 -4.93752e-15 0)
(5.22222 -2.84316e-14 0)
(5.22222 -1.06642e-13 0)
(5.22222 -1.67976e-13 0)
(5.22222 -1.87649e-13 0)
(5.22222 -1.56034e-13 0)
(5.22222 -7.86836e-14 0)
(5.22222 -4.03036e-14 0)
(5.22222 -3.62463e-14 0)
(5.22222 -2.10836e-14 0)
(5.22222 -4.10171e-14 0)
(5.22222 -7.36694e-14 0)
(5.22222 -6.91786e-14 0)
(5.22222 -5.35292e-14 0)
(5.22222 -4.24907e-14 0)
(5.22222 -3.34024e-14 0)
(5.22222 -6.03438e-16 0)
(5.22222 2.95384e-14 0)
(5.22222 6.19674e-14 0)
(5.22222 5.44661e-14 0)
(5.22222 5.28425e-14 0)
(5.22222 -1.28689e-15 0)
(5.22222 -7.24425e-14 0)
(5.22222 -1.30246e-13 0)
(5.22222 -1.90303e-13 0)
(5.22222 -1.3745e-13 0)
(5.22222 -4.78683e-14 0)
(5.22222 -6.39244e-14 0)
(5.22222 -4.75582e-14 0)
(5.22222 -3.31224e-14 0)
(5.22222 -1.27755e-14 0)
(5.22222 1.02351e-15 0)
(5.22222 6.43778e-15 0)
(5.22222 -2.03969e-14 0)
(5.22222 -8.05872e-14 0)
(5.22222 -7.82602e-14 0)
(5.22222 -5.08688e-14 0)
(5.22222 -2.62477e-14 0)
(5.22222 -1.01284e-14 0)
(5.22222 -9.01489e-15 0)
(5.22222 -1.48092e-14 0)
(5.22222 1.87366e-15 0)
(5.22222 -5.89769e-15 0)
(5.22222 2.02435e-14 0)
(5.22222 4.4341e-15 0)
(5.22222 -5.06521e-14 0)
(5.22222 -6.24308e-14 0)
(5.22222 -3.92868e-14 0)
(5.22222 8.4848e-15 0)
(5.22222 3.57928e-14 0)
(5.22222 2.55711e-15 0)
(5.22222 -3.06386e-14 0)
(5.22222 -4.09971e-14 0)
(5.22222 2.63045e-15 0)
(5.22222 5.59097e-15 0)
(5.22222 2.31473e-14 0)
(5.22222 1.53226e-14 0)
(5.22222 4.54378e-14 0)
(5.22222 5.49595e-14 0)
(5.22222 5.03387e-14 0)
(5.22222 7.99338e-14 0)
(5.22222 2.86049e-15 0)
(5.22222 -3.33324e-14 0)
(5.22222 -5.92002e-14 0)
(5.22222 -4.14305e-14 0)
(5.22222 -6.66282e-14 0)
(5.22222 -8.23742e-14 0)
(5.22222 -8.32144e-14 0)
(5.22222 -9.02823e-15 0)
(5.22222 -1.86299e-14 0)
(5.22222 -3.95002e-14 0)
(5.22222 7.88136e-15 0)
(5.22222 2.28806e-14 0)
(5.22222 1.88466e-14 0)
(5.22222 4.9912e-14 0)
(5.22222 9.92405e-14 0)
(5.22222 8.11573e-14 0)
(5.22222 1.23232e-13 0)
(5.22222 1.20454e-14 0)
(5.22222 3.47393e-15 0)
(5.22222 2.7098e-14 0)
(5.22222 4.6148e-14 0)
(5.22222 8.37478e-14 0)
(5.22222 1.09949e-13 0)
(5.22222 9.98139e-14 0)
(5.22222 4.77682e-14 0)
(5.22222 5.81434e-15 0)
(5.22222 1.10019e-14 0)
(5.22222 3.52394e-14 0)
(5.22222 -1.65495e-14 0)
(5.22222 -6.39577e-14 0)
(5.22222 -6.19474e-14 0)
(5.22222 -5.00786e-14 0)
(5.22222 -4.85117e-14 0)
(5.22222 -6.64115e-15 0)
(5.22222 2.57745e-14 0)
(5.22222 1.54227e-14 0)
(5.22222 -4.75415e-15 0)
(5.22222 -1.64362e-15 0)
(5.22222 1.95934e-14 0)
(5.22222 3.29524e-14 0)
(5.22222 -2.43375e-15 0)
(5.22222 -1.56227e-14 0)
(5.22222 1.1352e-14 0)
(5.22222 7.07255e-14 0)
(5.22222 4.31508e-14 0)
(5.22222 -3.99136e-14 0)
(5.22222 -4.56212e-14 0)
(5.22222 -2.29306e-14 0)
(5.22222 -1.01718e-14 0)
(5.22222 1.69863e-14 0)
(5.22222 9.12491e-15 0)
(5.22222 -7.89136e-15 0)
(5.22222 2.90917e-14 0)
(5.22222 6.60981e-14 0)
(5.22222 7.08022e-14 0)
(5.22222 3.72398e-14 0)
(5.22222 5.59683e-14 0)
(5.22222 7.13457e-16 0)
(5.22222 -1.05018e-14 0)
(5.22222 9.0949e-15 0)
(5.22222 3.15054e-15 0)
(5.22222 1.28989e-14 0)
(5.22222 -1.64028e-15 0)
(5.22222 -3.93068e-15 0)
(5.22222 6.7745e-15 0)
(5.22222 2.89417e-14 0)
(5.22222 3.07353e-14 0)
(5.22222 3.1152e-14 0)
(5.22222 -2.07336e-14 0)
(5.22222 -3.38225e-14 0)
(5.22222 -2.7138e-14 0)
(5.22222 -2.38975e-14 0)
(5.22222 -1.84999e-14 0)
(5.22222 -1.67629e-14 0)
(5.22222 -2.61879e-14 0)
(5.22222 2.35174e-14 0)
(5.22222 2.03402e-14 0)
(5.22222 2.79448e-14 0)
(5.22222 4.73582e-14 0)
(5.22222 -2.95851e-14 0)
(5.22222 -4.61646e-14 0)
(5.22222 -5.1919e-14 0)
(5.22222 -5.83067e-14 0)
(5.22222 -6.55447e-14 0)
(5.22222 -2.94818e-14 0)
(5.22222 -1.75564e-14 0)
(5.22222 -8.20442e-14 0)
(5.22222 -9.80636e-14 0)
(5.22222 -4.21106e-14 0)
(5.22222 6.30442e-14 0)
(5.22222 8.8982e-14 0)
(5.22222 1.00817e-13 0)
(5.22222 1.02991e-13 0)
(5.22222 1.11189e-13 0)
(5.22222 8.72284e-14 0)
(5.22222 9.74335e-14 0)
(5.22222 1.17592e-13 0)
(5.22222 -1.06352e-14 0)
(5.22222 9.72835e-15 0)
(5.22222 5.00753e-15 0)
(5.22222 -4.38742e-15 0)
(5.22222 -8.84486e-15 0)
(5.22222 2.47376e-15 0)
(5.22222 8.94154e-15 0)
(5.22222 2.42008e-14 0)
(5.22222 6.5588e-14 0)
(5.22222 9.58566e-14 0)
(5.22222 8.07173e-14 0)
(5.22222 6.91886e-14 0)
(5.22222 9.638e-14 0)
(5.22222 1.34373e-13 0)
(5.22222 6.15773e-14 0)
(5.22222 4.19072e-14 0)
(5.22222 -6.99121e-15 0)
(5.22222 -6.59481e-14 0)
(5.22222 -2.91117e-14 0)
(5.22222 -2.98051e-15 0)
(5.22222 8.0814e-15 0)
(5.22222 -1.26122e-14 0)
(5.22222 -3.43426e-14 0)
(5.22222 -1.60541e-13 0)
(5.22222 -1.78074e-13 0)
(5.22222 -1.63432e-13 0)
(5.22222 -1.59097e-13 0)
(5.22222 -9.34528e-14 0)
(5.22222 -5.6253e-14 0)
(5.22222 -6.78684e-14 0)
(5.22222 -4.19572e-14 0)
(5.22222 -2.43375e-14 0)
(5.22222 1.21821e-14 0)
(5.22222 6.17273e-14 0)
(5.22222 1.02944e-13 0)
(5.22222 1.24728e-13 0)
(5.22222 1.31626e-13 0)
(5.22222 1.21921e-13 0)
(5.22222 1.03381e-13 0)
(5.22222 7.82921e-14 0)
(5.22222 1.19521e-14 0)
(5.22222 3.4596e-14 0)
(5.22222 5.59463e-14 0)
(5.22222 7.16257e-14 0)
(5.22222 5.58997e-14 0)
(5.22222 2.64912e-14 0)
(5.22222 2.3014e-14 0)
(5.22222 5.05587e-14 0)
(5.22222 8.79552e-14 0)
(5.22222 1.07842e-13 0)
(5.22222 7.09022e-14 0)
(5.22222 3.33758e-14 0)
(5.22222 3.47793e-14 0)
(5.22222 2.42609e-14 0)
(5.22222 -3.43293e-14 0)
(5.22222 -1.05752e-13 0)
(5.22222 -1.33363e-13 0)
(5.22222 -7.25525e-14 0)
(5.22222 -4.52945e-14 0)
(5.22222 -1.5436e-14 0)
(5.22222 4.2574e-15 0)
(5.22222 1.38024e-14 0)
(5.22222 -1.37757e-14 0)
(5.22222 -5.5783e-14 0)
(5.22222 -1.23138e-13 0)
(5.22222 -8.07406e-14 0)
(5.22222 -5.9987e-14 0)
(5.22222 -3.24589e-14 0)
(5.22222 5.95103e-15 0)
(5.22222 8.34811e-15 0)
(5.22222 -4.56679e-14 0)
(5.22222 -7.06055e-14 0)
(5.22222 -1.35907e-13 0)
(5.22222 -1.16087e-13 0)
(5.22222 -6.59947e-14 0)
(5.22222 -1.05952e-14 0)
(5.22222 5.20623e-14 0)
(5.22222 9.41396e-14 0)
(5.22222 5.775e-14 0)
(5.22222 3.37893e-14 0)
(5.22222 4.84417e-15 0)
(5.22222 -8.40812e-15 0)
(5.22222 -3.76065e-15 0)
(5.22222 3.35058e-15 0)
(5.22222 4.18406e-15 0)
(5.22222 -3.97302e-14 0)
(5.22222 -6.58947e-14 0)
(5.22222 -6.24675e-14 0)
(5.22222 -8.74818e-15 0)
(5.22222 -1.45625e-14 0)
(5.22222 -7.77768e-14 0)
(5.22222 -1.09239e-13 0)
(5.22222 -1.36734e-13 0)
(5.22222 -1.49836e-13 0)
(5.22222 -1.50463e-13 0)
(5.22222 -1.03188e-13 0)
(5.22222 -1.00351e-14 0)
(5.22222 -3.60996e-14 0)
(5.22222 -3.43426e-14 0)
(5.22222 -8.39478e-15 0)
(5.22222 3.0962e-14 0)
(5.22222 4.51111e-14 0)
(5.22222 5.19823e-14 0)
(5.22222 1.27975e-13 0)
(5.22222 1.06272e-13 0)
(5.22222 9.75568e-14 0)
(5.22222 1.05068e-13 0)
(5.22222 1.1747e-13 0)
(5.22222 1.1588e-13 0)
(5.22222 4.72448e-14 0)
(5.22222 2.56378e-15 0)
(5.22222 -7.47462e-15 0)
(5.22222 -8.14274e-14 0)
(5.22222 -9.63933e-14 0)
(5.22222 -9.24193e-14 0)
(5.22222 -4.18072e-15 0)
(5.22222 7.45695e-14 0)
(5.22222 1.48352e-13 0)
(5.22222 1.98654e-13 0)
(5.22222 1.60883e-13 0)
(5.22222 -8.19808e-15 0)
(5.22222 -1.80464e-14 0)
(5.22222 -6.90719e-14 0)
(5.22222 -9.30894e-14 0)
(5.22222 -7.83902e-14 0)
(5.22222 -3.13788e-14 0)
(5.22222 -1.7293e-14 0)
(5.22222 -2.77848e-14 0)
(5.22222 -1.03285e-13 0)
(5.22222 -1.55987e-13 0)
(5.22222 -1.49176e-13 0)
(5.22222 -1.68692e-13 0)
(5.22222 -1.50136e-13 0)
(5.22222 -1.28726e-13 0)
(5.22222 -7.43262e-14 0)
(5.22222 -6.61781e-15 0)
(5.22222 -2.56711e-16 0)
(5.22222 2.27706e-15 0)
(5.22222 1.28989e-14 0)
(5.22222 1.31856e-14 0)
(5.22222 7.89136e-15 0)
(5.22222 7.05122e-15 0)
(5.22222 5.1839e-14 0)
(5.22222 1.05958e-13 0)
(5.22222 1.37517e-13 0)
(5.22222 1.41311e-13 0)
(5.22222 1.01341e-13 0)
(5.22222 9.59499e-14 0)
(5.22222 4.16439e-14 0)
(5.22222 3.23723e-14 0)
(5.22222 3.26656e-14 0)
(5.22222 1.19021e-14 0)
(5.22222 1.06452e-14 0)
(5.22222 7.29459e-15 0)
(5.22222 -4.27874e-14 0)
(5.22222 -7.62565e-14 0)
(5.22222 -6.59247e-14 0)
(5.22222 -4.92318e-14 0)
(5.22222 4.58513e-14 0)
(5.22222 5.01999e-14 0)
(5.22222 -1.07619e-14 0)
(5.22222 -2.56944e-14 0)
(5.22222 -2.69013e-14 0)
(5.22222 -5.83101e-15 0)
(5.22222 6.69782e-15 0)
(5.22222 3.32091e-14 0)
(5.22222 8.31044e-14 0)
(5.22222 1.03495e-13 0)
(5.22222 8.55348e-14 0)
(5.22222 -3.24789e-14 0)
(5.22222 -3.76298e-14 0)
(5.22222 -4.0407e-14 0)
(5.22222 -1.40891e-14 0)
(5.22222 4.69081e-15 0)
(5.22222 3.20355e-14 0)
(5.22222 3.35925e-14 0)
(5.22222 2.56544e-14 0)
(5.22222 2.51343e-14 0)
(5.22222 1.88233e-14 0)
(5.22222 2.8855e-14 0)
(5.22222 5.43694e-14 0)
(5.22222 1.70063e-14 0)
(5.22222 -3.55328e-14 0)
(5.22222 -3.69097e-14 0)
(5.22222 -3.78299e-14 0)
(5.22222 -1.933e-14 0)
(5.22222 2.41642e-14 0)
(5.22222 -2.14804e-14 0)
(5.22222 -7.1579e-14 0)
(5.22222 -1.03431e-13 0)
(5.22222 -9.98572e-14 0)
(5.22222 -9.16525e-14 0)
(5.22222 -3.81433e-14 0)
(5.22222 -1.36524e-14 0)
(5.22222 5.53429e-16 0)
(5.22222 -3.01885e-14 0)
(5.22222 -4.32675e-14 0)
(5.22222 -7.48263e-14 0)
(5.22222 -7.32627e-14 0)
(5.22222 -5.87752e-14 0)
(5.22222 1.19754e-14 0)
(5.22222 1.84465e-14 0)
(5.22222 4.8145e-14 0)
(5.22222 5.82234e-14 0)
(5.22222 8.42779e-14 0)
(5.22222 1.38947e-13 0)
(5.22222 1.25015e-13 0)
(5.22222 7.15157e-14 0)
(5.22222 7.81802e-14 0)
(5.22222 1.169e-13 0)
(5.22222 1.97854e-13 0)
(5.22222 2.18884e-13 0)
(5.22222 2.09149e-13 0)
(5.22222 1.23275e-13 0)
(5.22222 6.95253e-14 0)
(5.22222 1.26388e-14 0)
(5.22222 3.30057e-14 0)
(5.22222 4.83617e-14 0)
(5.22222 5.25557e-14 0)
(5.22222 7.43795e-14 0)
(5.22222 8.25076e-14 0)
(5.22222 5.47328e-14 0)
(5.22222 1.23521e-14 0)
(5.22222 -1.21288e-14 0)
(5.22222 1.1842e-14 0)
(5.22222 1.97868e-14 0)
(5.22222 -1.59594e-14 0)
(5.22222 -4.16705e-14 0)
(5.22222 -3.90834e-14 0)
(5.22222 -6.68449e-14 0)
(5.22222 -5.90369e-14 0)
(5.22222 -5.87001e-14 0)
(5.22222 1.10352e-15 0)
(5.22222 8.90054e-14 0)
(5.22222 1.41748e-13 0)
(5.22222 1.5361e-13 0)
(5.22222 1.04948e-13 0)
(5.22222 2.47209e-14 0)
(5.22222 -1.59294e-14 0)
(5.22222 3.74258e-14 0)
(5.22222 9.8417e-15 0)
(5.22222 1.43025e-14 0)
(5.22222 1.00784e-14 0)
(5.22222 -4.00069e-16 0)
(5.22222 1.32356e-14 0)
(5.22222 3.51794e-14 0)
(5.22222 2.76214e-14 0)
(5.22222 -7.748e-15 0)
(5.22222 -2.96818e-14 0)
(5.22222 7.83469e-15 0)
(5.22222 1.08759e-13 0)
(5.22222 1.48079e-13 0)
(5.22222 1.00147e-13 0)
(5.22222 3.85967e-14 0)
(5.22222 -1.06118e-14 0)
(5.22222 -3.23756e-14 0)
(5.22222 -2.71414e-14 0)
(5.22222 4.77582e-14 0)
(5.22222 1.10792e-13 0)
(5.22222 1.32099e-13 0)
(5.22222 1.7508e-13 0)
(5.22222 2.15337e-13 0)
(5.22222 2.61395e-13 0)
(5.22222 2.83992e-13 0)
(5.22222 2.58165e-13 0)
(5.22222 1.98661e-13 0)
(5.22222 1.54163e-13 0)
(5.22222 1.368e-13 0)
(5.22222 1.50236e-13 0)
(5.22222 1.58177e-13 0)
(5.22222 1.44765e-13 0)
(5.22222 1.41508e-13 0)
(5.22222 1.61745e-13 0)
(5.22222 1.49759e-13 0)
(5.22222 1.26028e-13 0)
(5.22222 1.16627e-13 0)
(5.22222 1.28616e-13 0)
(5.22222 1.02731e-13 0)
(5.22222 1.04725e-13 0)
(5.22222 4.22964e-14 0)
(5.22222 -9.38829e-15 0)
(5.22222 -9.02823e-15 0)
(5.22222 -5.11755e-15 0)
(5.22222 -2.81349e-14 0)
(5.22222 -2.93884e-14 0)
(5.22222 -4.12738e-15 0)
(5.22222 2.90117e-14 0)
(5.22222 5.17923e-14 0)
(5.22222 4.97086e-15 0)
(5.22222 -2.60245e-14 0)
(5.22222 -1.21521e-14 0)
(5.22222 2.63512e-14 0)
(5.22222 1.76197e-14 0)
(5.22222 1.59594e-14 0)
(5.22222 6.10505e-14 0)
(5.22222 5.94669e-14 0)
(5.22222 5.5713e-14 0)
(5.22222 7.42395e-14 0)
(5.22222 7.70866e-14 0)
(5.22222 8.24976e-14 0)
(5.22222 9.13891e-14 0)
(5.22222 1.52256e-13 0)
(5.22222 1.95094e-13 0)
(5.22222 1.82762e-13 0)
(5.22222 1.18534e-13 0)
(5.22222 7.56731e-14 0)
(5.22222 9.32828e-14 0)
(5.22222 2.24429e-13 0)
(5.22222 3.02812e-13 0)
(5.22222 3.17471e-13 0)
(5.22222 2.89083e-13 0)
(5.22222 2.28399e-13 0)
(5.22222 2.22969e-13 0)
(5.22222 2.28559e-13 0)
(5.22222 1.88369e-13 0)
(5.22222 1.09272e-13 0)
(5.22222 2.35007e-14 0)
(5.22222 7.10023e-14 0)
(5.22222 9.35195e-14 0)
(5.22222 7.99929e-14 0)
(5.22222 -1.1702e-15 0)
(5.22222 5.91102e-15 0)
(5.22222 4.36075e-15 0)
(5.22222 1.57027e-15 0)
(5.22222 7.06122e-15 0)
(5.22222 7.71133e-15 0)
(5.22222 9.77202e-14 0)
(5.22222 1.40864e-13 0)
(5.22222 1.20964e-13 0)
(5.22222 1.09822e-13 0)
(5.22222 7.9037e-14 0)
(5.22222 2.07636e-14 0)
(5.22222 2.07769e-14 0)
(5.22222 4.65414e-14 0)
(5.22222 7.9387e-14 0)
(5.22222 9.92205e-14 0)
(5.22222 9.67067e-14 0)
(5.22222 2.36474e-14 0)
(5.22222 -4.12605e-14 0)
(5.22222 -7.25159e-14 0)
(5.22222 -1.3371e-13 0)
(5.22222 -1.31579e-13 0)
(5.22222 -1.18841e-13 0)
(5.22222 -4.67647e-14 0)
(5.22222 -7.01221e-14 0)
(5.22222 -8.93621e-14 0)
(5.22222 -8.3251e-14 0)
(5.22222 -7.3146e-15 0)
(5.22222 1.3469e-15 0)
(5.22222 7.42128e-15 0)
(5.22222 4.40776e-14 0)
(5.22222 5.03987e-14 0)
(5.22222 5.71732e-14 0)
(5.22222 6.71383e-14 0)
(5.22222 6.68782e-14 0)
(5.22222 4.87117e-14 0)
(5.22222 -3.73765e-14 0)
(5.22222 -5.97903e-14 0)
(5.22222 -7.75901e-14 0)
(5.22222 -5.54984e-14 0)
(5.22222 8.01805e-15 0)
(5.22222 8.01805e-15 0)
(5.22222 6.14439e-15 0)
(5.22222 4.42843e-14 0)
(5.22222 4.57912e-14 0)
(5.22222 2.85216e-14 0)
(5.22222 7.43695e-14 0)
(5.22222 1.3617e-13 0)
(5.22222 1.60608e-13 0)
(5.22222 1.55574e-13 0)
(5.22222 1.01081e-13 0)
(5.22222 3.53394e-14 0)
(5.22222 2.62545e-14 0)
(5.22222 2.93084e-14 0)
(5.22222 -1.66729e-14 0)
(5.22222 1.26722e-14 0)
(5.22222 -2.27706e-14 0)
(5.22222 -1.03421e-13 0)
(5.22222 -1.37904e-13 0)
(5.22222 -1.5398e-13 0)
(5.22222 -1.82008e-13 0)
(5.22222 -1.9154e-13 0)
(5.22222 -1.78207e-13 0)
(5.22222 -1.25692e-13 0)
(5.22222 -3.31024e-14 0)
(5.22222 -1.86666e-14 0)
(5.22222 1.27255e-14 0)
(5.22222 3.29957e-14 0)
(5.22222 4.97286e-14 0)
(5.22222 1.09739e-13 0)
(5.22222 1.45598e-13 0)
(5.22222 1.40268e-13 0)
(5.22222 8.62316e-14 0)
(5.22222 -3.79399e-14 0)
(5.22222 -3.55595e-14 0)
(5.22222 -2.8915e-14 0)
(5.22222 -6.74616e-14 0)
(5.22222 -7.9167e-14 0)
(5.22222 -9.45863e-14 0)
(5.22222 -1.13025e-13 0)
(5.22222 -8.33477e-17 0)
(5.22222 -2.76714e-16 0)
(5.22222 1.05385e-14 0)
(5.22222 2.65012e-14 0)
(5.22222 5.90102e-16 0)
(5.22222 -5.93402e-14 0)
(5.22222 -1.19444e-13 0)
(5.22222 -9.02356e-14 0)
(5.22222 -5.71565e-14 0)
(5.22222 -7.39794e-14 0)
(5.22222 -1.07659e-13 0)
(5.22222 -6.29909e-14 0)
(5.22222 -4.72448e-14 0)
(5.22222 -2.03935e-14 0)
(5.22222 2.11703e-15 0)
(5.22222 -8.07039e-14 0)
(5.22222 -6.35976e-14 0)
(5.22222 -6.33176e-14 0)
(5.22222 -6.62981e-14 0)
(5.22222 -1.16907e-13 0)
(5.22222 -9.03256e-14 0)
(5.22222 -7.01988e-14 0)
(5.22222 -5.76466e-14 0)
(5.22222 -9.35795e-14 0)
(5.22222 -7.26525e-14 0)
(5.22222 1.1352e-13 0)
(5.22222 1.75397e-13 0)
(5.22222 1.79011e-13 0)
(5.22222 1.59771e-13 0)
(5.22222 1.3437e-13 0)
(5.22222 8.97788e-14 0)
(5.22222 5.12155e-14 0)
(5.22222 -9.56832e-16 0)
(5.22222 -3.22889e-14 0)
(5.22222 -1.59027e-15 0)
(5.22222 2.14637e-14 0)
(5.22222 3.97735e-14 0)
(5.22222 3.63296e-14 0)
(5.22222 8.01805e-15 0)
(5.22222 9.98716e-15 0)
(5.22222 -6.61114e-15 0)
(5.22222 -1.02618e-14 0)
(5.22222 -9.23159e-15 0)
(5.22222 -3.44093e-14 0)
(5.22222 -4.77883e-14 0)
(5.22222 -6.45145e-14 0)
(5.22222 -1.93023e-13 0)
(5.22222 -2.37034e-13 0)
(5.22222 -2.22945e-13 0)
(5.22222 -1.50316e-13 0)
(5.22222 -1.44898e-13 0)
(5.22222 -1.59514e-13 0)
(5.22222 -1.68889e-13 0)
(5.22222 -1.49266e-13 0)
(5.22222 -6.38044e-14 0)
(5.22222 -5.67198e-14 0)
(5.22222 -4.37542e-14 0)
(5.22222 -5.13689e-14 0)
(5.22222 -6.49679e-14 0)
(5.22222 -1.25102e-13 0)
(5.22222 -1.40831e-13 0)
(5.22222 -1.50113e-13 0)
(5.22222 -1.75774e-13 0)
(5.22222 -1.68609e-13 0)
(5.22222 -1.59934e-13 0)
(5.22222 -3.17855e-14 0)
(5.22222 4.00769e-14 0)
(5.22222 6.3941e-14 0)
(5.22222 4.66981e-14 0)
(5.22222 -2.85283e-14 0)
(5.22222 -8.77151e-14 0)
(5.22222 -8.8572e-14 0)
(5.22222 -5.38393e-14 0)
(5.22222 -2.78781e-14 0)
(5.22222 -4.39209e-14 0)
(5.22222 4.61746e-15 0)
(5.22222 6.30175e-14 0)
(5.22222 5.61464e-14 0)
(5.22222 9.90838e-15 0)
(5.22222 -1.68893e-14 0)
(5.22222 -5.83434e-15 0)
(5.22222 -1.43391e-14 0)
(5.22222 -4.07737e-15 0)
(5.22222 -9.43496e-16 0)
(5.22222 2.82382e-14 0)
(5.22222 5.33492e-14 0)
(5.22222 2.82749e-14 0)
(5.22222 2.62545e-14 0)
(5.22222 2.1347e-14 0)
(5.22222 -4.56079e-15 0)
(5.22222 1.41791e-14 0)
(5.22222 -1.72997e-14 0)
(5.22222 -1.66629e-14 0)
(5.22222 -4.84617e-14 0)
(5.22222 -9.04289e-14 0)
(5.22222 -7.36727e-14 0)
(5.22222 -2.46109e-14 0)
(5.22222 -9.65833e-15 0)
(5.22222 -3.36425e-14 0)
(5.22222 -6.22974e-14 0)
(5.22222 -6.61081e-14 0)
(5.22222 -4.09171e-14 0)
(5.22222 -5.47961e-14 0)
(5.22222 -6.85785e-14 0)
(5.22222 -1.09909e-13 0)
(5.22222 1.42925e-14 0)
(5.22222 5.81067e-14 0)
(5.22222 5.83801e-14 0)
(5.22222 4.47877e-14 0)
(5.22222 2.90517e-14 0)
(5.22222 5.28958e-14 0)
(5.22222 1.85165e-14 0)
(5.22222 -1.41158e-14 0)
(5.22222 -3.32924e-14 0)
(5.22222 -7.28192e-14 0)
(5.22222 -1.15023e-13 0)
(5.22222 -8.55914e-14 0)
(5.22222 -2.45009e-14 0)
(5.22222 -7.81468e-15 0)
(5.22222 -1.87418e-14 0)
(5.22222 -1.10019e-15 0)
(5.22222 7.76134e-15 0)
(5.22222 7.08789e-15 0)
(5.22222 -3.14388e-15 0)
(5.22222 9.10157e-16 0)
(5.22222 -1.65362e-15 0)
(5.22222 -1.10019e-16 0)
(5.22222 -1.06385e-14 0)
(5.22222 -2.23439e-14 0)
(5.22222 -2.46776e-14 0)
(5.22222 4.16739e-15 0)
(5.22222 5.79767e-15 0)
(5.22222 2.23072e-14 0)
(5.22222 2.02668e-14 0)
(5.22222 -8.04472e-15 0)
(5.22222 -7.02788e-15 0)
(5.22222 7.69333e-14 0)
(5.22222 1.35667e-13 0)
(5.22222 1.40638e-13 0)
(5.22222 1.21138e-13 0)
(5.22222 1.28779e-13 0)
(5.22222 1.44615e-13 0)
(5.22222 1.47102e-13 0)
(5.22222 1.02001e-13 0)
(5.22222 6.57914e-14 0)
(5.22222 1.03258e-13 0)
(5.22222 1.19234e-13 0)
(5.22222 3.04486e-14 0)
(5.22222 -1.96201e-14 0)
(5.22222 -5.27891e-14 0)
(5.22222 -1.18587e-13 0)
(5.22222 -7.45895e-14 0)
(5.22222 7.79801e-15 0)
(5.22222 -5.84434e-15 0)
(5.22222 -5.33259e-14 0)
(5.22222 -1.13916e-13 0)
(5.22222 -6.23408e-14 0)
(5.22222 5.82301e-14 0)
(5.22222 9.37929e-14 0)
(5.22222 1.26416e-13 0)
(5.22222 -1.86699e-16 0)
(5.22222 1.98034e-14 0)
(5.22222 1.20121e-14 0)
(5.22222 -1.57827e-14 0)
(5.22222 -4.0507e-14 0)
(5.22222 -6.72816e-14 0)
(5.22222 -5.01053e-14 0)
(5.22222 -5.97603e-14 0)
(5.22222 -6.01104e-14 0)
(5.22222 -7.08322e-14 0)
(5.22222 -6.52646e-14 0)
(5.22222 -6.21941e-14 0)
(5.22222 -6.92953e-14 0)
(5.22222 -1.57527e-14 0)
(5.22222 5.765e-14 0)
(5.22222 8.68917e-14 0)
(5.22222 1.06048e-13 0)
(5.22222 9.29294e-14 0)
(5.22222 9.43696e-14 0)
(5.22222 1.03375e-13 0)
(5.22222 6.76617e-14 0)
(5.22222 5.70399e-14 0)
(5.22222 6.00404e-14 0)
(5.22222 5.31592e-14 0)
(5.22222 2.65012e-14 0)
(5.22222 -1.73297e-14 0)
(5.22222 -2.75881e-14 0)
(5.22222 -1.89079e-13 0)
(5.22222 -2.5349e-13 0)
(5.22222 -2.9041e-13 0)
(5.22222 -2.5036e-13 0)
(5.22222 -4.16372e-14 0)
(5.22222 -3.6573e-15 0)
(5.22222 2.05469e-14 0)
(5.22222 -4.4341e-15 0)
(5.22222 2.82382e-15 0)
(5.22222 1.51059e-14 0)
(5.22222 6.09439e-14 0)
(5.22222 7.40461e-14 0)
(5.22222 8.01652e-14 0)
(5.22222 -1.5556e-14 0)
(5.22222 -6.40444e-15 0)
(5.22222 5.50762e-15 0)
(5.22222 2.5351e-14 0)
(5.22222 2.98285e-14 0)
(5.22222 2.39508e-14 0)
(5.22222 3.26756e-14 0)
(5.22222 4.17672e-14 0)
(5.22222 3.73631e-14 0)
(5.22222 -1.96367e-14 0)
(5.22222 -2.66046e-14 0)
(5.22222 -1.89766e-14 0)
(5.22222 -2.91384e-15 0)
(5.22222 -1.80264e-14 0)
(5.22222 -1.92767e-14 0)
(5.22222 3.33691e-14 0)
(5.22222 5.77e-14 0)
(5.22222 4.74582e-14 0)
(5.22222 2.3094e-14 0)
(5.22222 2.67413e-14 0)
(5.22222 2.15037e-15 0)
(5.22222 -3.06153e-14 0)
(5.22222 -4.24707e-14 0)
(5.22222 -1.85232e-14 0)
(5.22222 -5.12288e-14 0)
(5.22222 -1.43138e-13 0)
(5.22222 -2.01555e-13 0)
(5.22222 -2.15671e-13 0)
(5.22222 -2.43492e-13 0)
(5.22222 -2.26219e-13 0)
(5.22222 -8.2731e-14 0)
(5.22222 -6.30509e-14 0)
(5.22222 -6.61948e-14 0)
(5.22222 -6.5888e-14 0)
(5.22222 -5.93869e-14 0)
(5.22222 -9.10891e-14 0)
(5.22222 -1.00741e-13 0)
(5.22222 -5.70865e-14 0)
(5.22222 -3.84566e-14 0)
(5.22222 8.02485e-14 0)
(5.22222 4.38742e-15 0)
(5.22222 4.43743e-15 0)
(5.22222 -2.26506e-14 0)
(5.22222 -8.76818e-15 0)
(5.22222 3.38058e-15 0)
(5.22222 1.50026e-15 0)
(5.22222 -7.02788e-15 0)
(5.22222 -2.72714e-15 0)
(5.22222 -2.05902e-14 0)
(5.22222 -1.44292e-14 0)
(5.22222 -5.58763e-15 0)
(5.22222 8.02472e-15 0)
(5.22222 1.31823e-14 0)
(5.22222 6.61981e-14 0)
(5.22222 9.0529e-14 0)
(5.22222 9.91205e-14 0)
(5.22222 3.41459e-14 0)
(5.22222 -2.50443e-14 0)
(5.22222 -1.90833e-14 0)
(5.22222 6.30109e-15 0)
(5.22222 -3.43726e-15 0)
(5.22222 -9.65167e-15 0)
(5.22222 1.49359e-15 0)
(5.22222 -4.13305e-14 0)
(5.22222 -7.19924e-14 0)
(5.22222 -7.16324e-14 0)
(5.22222 -1.24818e-13 0)
(5.22222 -1.51409e-13 0)
(5.22222 -1.56277e-13 0)
(5.22222 -8.67316e-14 0)
(5.22222 -2.14204e-14 0)
(5.22222 4.57412e-15 0)
(5.22222 1.58427e-14 0)
(5.22222 -6.52113e-15 0)
(5.22222 -1.01484e-14 0)
(5.22222 6.99121e-15 0)
(5.22222 -1.85932e-14 0)
(5.22222 -1.76264e-14 0)
(5.22222 -1.7623e-14 0)
(5.22222 -5.30819e-14 0)
(5.22222 1.5426e-14 0)
(5.22222 3.26056e-15 0)
(5.22222 -1.84499e-14 0)
(5.22222 -5.07154e-14 0)
(5.22222 -5.08488e-14 0)
(5.22222 -9.0489e-14 0)
(5.22222 -1.08935e-13 0)
(5.22222 -1.03064e-13 0)
(5.22222 -3.55828e-14 0)
(5.22222 -1.54027e-15 0)
(5.22222 -1.17387e-14 0)
(5.22222 2.06036e-15 0)
(5.22222 4.07537e-14 0)
(5.22222 1.15707e-13 0)
(5.22222 1.1642e-13 0)
(5.22222 6.48645e-14 0)
(5.22222 -7.67299e-14 0)
(5.22222 -9.03756e-14 0)
(5.22222 -3.3069e-14 0)
(5.22222 1.69796e-14 0)
(5.22222 6.76217e-14 0)
(5.22222 6.64348e-14 0)
(5.22222 6.37243e-14 0)
(5.22222 -3.75632e-14 0)
(5.22222 -6.26642e-14 0)
(5.22222 -3.6803e-14 0)
(5.22222 -5.62897e-14 0)
(5.22222 -1.06882e-13 0)
(5.22222 -8.74551e-14 0)
(5.22222 -4.54845e-14 0)
(5.22222 8.82819e-15 0)
(5.22222 5.25457e-14 0)
(5.22222 -6.04104e-15 0)
(5.22222 -2.18871e-14 0)
(5.22222 -1.41691e-14 0)
(5.22222 5.64431e-14 0)
(5.22222 2.38941e-14 0)
(5.22222 -2.1167e-14 0)
(5.22222 -8.92721e-14 0)
(5.22222 -8.33405e-14 0)
(5.22222 -7.63465e-16 0)
(5.22222 -1.33956e-14 0)
(5.22222 -4.71415e-15 0)
(5.22222 -1.30989e-14 0)
(5.22222 -3.01819e-14 0)
(5.22222 -4.82817e-14 0)
(5.22222 -6.48512e-14 0)
(5.22222 -8.66716e-14 0)
(5.22222 -7.83469e-14 0)
(5.22222 -4.77216e-14 0)
(5.22222 -4.49744e-14 0)
(5.22222 -3.57462e-14 0)
(5.22222 -2.98018e-14 0)
(5.22222 -3.2989e-14 0)
(5.22222 -7.45895e-14 0)
(5.22222 -1.43118e-13 0)
(5.22222 -1.5525e-13 0)
(5.22222 -8.49647e-14 0)
(5.22222 4.43277e-14 0)
(5.22222 1.21618e-13 0)
(5.22222 1.37697e-13 0)
(5.22222 5.16456e-14 0)
(5.22222 -4.57312e-14 0)
(5.22222 -1.14283e-13 0)
(5.22222 -1.23225e-13 0)
(5.22222 -1.01941e-13 0)
(5.22222 -9.10891e-14 0)
(5.22222 -6.2054e-14 0)
(5.22222 -7.38094e-14 0)
(5.22222 -1.00041e-13 0)
(5.22222 -1.26449e-13 0)
(5.22222 -1.44582e-13 0)
(5.22222 -1.33996e-13 0)
(5.22222 -1.31809e-13 0)
(5.22222 -1.08402e-13 0)
(5.22222 -1.10219e-14 0)
(5.22222 5.66631e-14 0)
(5.22222 4.60646e-14 0)
(5.22222 2.18171e-14 0)
(5.22222 4.41662e-14 0)
(5.22222 -2.92384e-15 0)
(5.22222 -2.25039e-15 0)
(5.22222 5.06754e-16 0)
(5.22222 1.46292e-14 0)
(5.22222 9.99839e-15 0)
(5.22222 2.77381e-15 0)
(5.22222 -8.04806e-15 0)
(5.22222 -5.73432e-15 0)
(5.22222 -2.64479e-14 0)
(5.22222 -5.57963e-14 0)
(5.22222 -5.17823e-14 0)
(5.22222 -6.42444e-14 0)
(5.22222 -1.05882e-13 0)
(5.22222 -1.50789e-13 0)
(5.22222 -1.09619e-13 0)
(5.22222 -9.33561e-14 0)
(5.22222 -1.00991e-13 0)
(5.22222 -1.44695e-13 0)
(5.22222 -8.25176e-14 0)
(5.22222 -5.91069e-14 0)
(5.22222 -7.27392e-14 0)
(5.22222 -1.21921e-13 0)
(5.22222 -1.46612e-13 0)
(5.22222 -1.3669e-13 0)
(5.22222 -1.43261e-13 0)
(5.22222 -1.74623e-13 0)
(5.22222 -2.31693e-13 0)
(5.22222 -2.01835e-13 0)
(5.22222 -9.42096e-14 0)
(5.22222 -7.26559e-14 0)
(5.22222 -1.03258e-13 0)
(5.22222 -1.66905e-13 0)
(5.22222 -1.87096e-13 0)
(5.22222 -1.54263e-13 0)
(5.22222 -1.04461e-13 0)
(5.22222 -1.92333e-14 0)
(5.22222 5.04787e-14 0)
(5.22222 6.43144e-14 0)
(5.22222 6.69016e-14 0)
(5.22222 2.98521e-14 0)
(5.22222 2.58378e-15 0)
(5.22222 1.941e-14 0)
(5.22222 4.53878e-14 0)
(5.22222 4.97853e-14 0)
(5.22222 5.95036e-14 0)
(5.22222 6.48045e-14 0)
(5.22222 1.02808e-13 0)
(5.22222 1.29542e-13 0)
(5.22222 1.19204e-13 0)
(5.22222 6.12539e-14 0)
(5.22222 4.09704e-14 0)
(5.22222 6.39077e-14 0)
(5.22222 7.31326e-14 0)
(5.22222 1.11009e-13 0)
(5.22222 6.23641e-14 0)
(5.22222 4.51445e-14 0)
(5.22222 -8.73484e-16 0)
(5.22222 -1.21121e-13 0)
(5.22222 -1.73467e-13 0)
(5.22222 -1.95174e-13 0)
(5.22222 -1.7604e-13 0)
(5.22222 -1.46332e-13 0)
(5.22222 -1.33683e-13 0)
(5.22222 -1.01391e-13 0)
(5.22222 -7.48029e-14 0)
(5.22222 -9.20326e-14 0)
(5.22222 -1.24522e-13 0)
(5.22222 -1.74003e-13 0)
(5.22222 -1.73773e-13 0)
(5.22222 -1.18814e-13 0)
(5.22222 -1.23621e-13 0)
(5.22222 -1.3558e-13 0)
(5.22222 -3.35625e-14 0)
(5.22222 -6.89452e-15 0)
(5.22222 -7.39128e-15 0)
(5.22222 1.05485e-14 0)
(5.22222 -2.58745e-14 0)
(5.22222 -4.82017e-14 0)
(5.22222 -5.2239e-14 0)
(5.22222 -8.00381e-14 0)
(5.22222 3.23056e-15 0)
(5.22222 1.54327e-14 0)
(5.22222 3.59662e-14 0)
(5.22222 4.32508e-14 0)
(5.22222 4.42943e-14 0)
(5.22222 5.35426e-14 0)
(5.22222 1.08739e-13 0)
(5.22222 9.99406e-14 0)
(5.22222 7.39061e-14 0)
(5.22222 3.834e-14 0)
(5.22222 -1.03951e-14 0)
(5.22222 -2.49977e-14 0)
(5.22222 1.13086e-14 0)
(5.22222 1.02874e-13 0)
(5.22222 1.01581e-13 0)
(5.22222 8.1254e-14 0)
(5.22222 1.78698e-14 0)
(5.22222 2.47976e-14 0)
(5.22222 1.46525e-14 0)
(5.22222 -1.42225e-14 0)
(5.22222 -3.38558e-14 0)
(5.22222 -6.55947e-14 0)
(5.22222 -5.74966e-14 0)
(5.22222 -5.78367e-14 0)
(5.22222 -4.88184e-14 0)
(5.22222 -4.25173e-14 0)
(5.22222 -5.75066e-14 0)
(5.22222 -6.70516e-14 0)
(5.22222 -5.93936e-14 0)
(5.22222 -3.55695e-14 0)
(5.22222 -5.91602e-14 0)
(5.22222 -1.06792e-13 0)