/*--------------------------------*- C++ -*----------------------------------*\
| =========                 |                                                 |
| \\      /  F ield         | OpenFOAM: The Open Source CFD Toolbox           |
|  \\    /   O peration     | Version:  2206                                  |
|   \\  /    A nd           | Website:  www.openfoam.com                      |
|    \\/     M anipulation  |                                                 |
\*---------------------------------------------------------------------------*/
FoamFile
{
    version     2.0;
    format      ascii;
    arch        "LSB;label=32;scalar=64";
    class       volScalarField;
    location    "0.2";
    object      p;
}
// * * * * * * * * * * * * * * * * * * * * * * * * * * * * * * * * * * * * * //

dimensions      [1 -1 -2 0 0 0 0];

internalField   nonuniform List<scalar> 
4800
(
1
1
1
1
1
1
1
1
1
1
1
1
1
1
1
1
1
1
1
1
1
1
1
1
1
1
1
1
1
1
1
1
1
1
1
1
1
1
1
1
1
1
1
1
1
1
1
1
1
1
1
1
1
1
1
1
1
1
1
1
1
1
1
1
1
1
1
1
1
1
1
1
1
1
1
1
1
1
1
1
1
1
1
1
1
1
1
1
1
1
1
1
1
1
1
1
1
1
1
1
1
1
1
1
1
1
1
1
1
1
1
1
1
1
1
1
1
1
1
1
1
1
1
1
1
1
1
1
1
1
1
1
1
1
1
1
1
1
1
1
1
1
1
1
1
1
1
1
1
1
1
1
1
1
1
1
1
1
1
1
1
1
1
1
1
1
1
1
1
1
1
1
1
1
1
1
1
1
1
1
1
1
1
1
1
1
1
1
1
1
1
1
1
1
1
1
1
1
1
1
1
1
1
1
1
1
1
1
1
1
1
1
1
1
1
1
1
1
1
1
1
1
1
1
1
1
1
1
1
1
1
1
1
1
1
1
1
1
1
1
1
1
1
1
1
1
1
1
1
1
1
1
1
1
1
1
1
1
1
1
1
1
1
1
1
1
1
1
1
1
1
1
1
1
1
1
1
1
1
1
1
1
1
1
1
1
1
1
1
1
1
1
1
1
1
1
1
1
1
1
1
1
1
1
1
1
1
1
1
1
1
1
1
1
1
1
1
1
1
1
1
1
1
1
1
1
1
1
1
1
1
1
1
1
1
1
1
1
1
1
1
1
1
1
1
1
1
1
1
1
1
1
1
1
1
1
1
1
1
1
1
1
1
1
1
1
1
1
1
1
1
1
1
1
1
1
1
1
1
1
1
1
1
1
1
1
1
1
1
1
1
1
1
1
1
1
1
1
1
1
1
1
1
1
1
1
1
1
1
1
1
1
1
1
1
1
1
1
1
1
1
1
1
1
1
1
1
1
1
1
1
1
1
1
1
1
1
1
1
1
1
1
1
1
1
1
1
1
1
1
1
1
1
1
1
1
1
1
1
1
1
1
1
1
1
1
1
1
1
1
1
1
1
1
1
1
1
1
1
1
1
1
1
1
1
1
1
1
1
1
1
1
1
1
1
1
1
1
1
1
1
1
1
1
1
1
1
1
1
1
1
1
1
1
1
1
1
1
1
1
1
1
1
1
1
1
1
1
1
1
1
1
1
1
1
1
1
1
1
1
1
1
1
1
1
1
1
1
1
1
1
1
1
1
1
1
1
1
1
1
1
1
1
1
1
1
1
1
1
1
1
1
1
1
1
1
1
1
1
1
1
1
1
1
1
1
1
1
1
1
1
1
1
1
1
1
1
1
1
1
1
1
1
1
1
1
1
1
1
1
1
1
1
1
1
1
1
1
1
1
1
1
1
1
1
1
1
1
1
1
1
1
1
1
1
1
1
1
1
1
1
1
1
1
1
1
1
1
1
1
1
1
1
1
1
1
1
1
1
1
1
1
1
1
1
1
1
1
1
1
1
1
1
1
1
1
1
1
1
1
1
1
1
1
1
1
1
1
1
1
1
1
1
1
1
1
1
1
1
1
1
1
1
1
1
1
1
1
1
1
1
1
1
1
1
1
1
1
1
1
1
1
1
1
1
1
1
1
1
1
1
1
1
1
1
1
1
1
1
1
1
1
1
1
1
1
1
1
1
1
1
1
1
1
1
1
1
1
1
1
1
1
1
1
1
1
1
1
1
1
1
1
1
1
1
1
1
1
1
1
1
1
1
1
1
1
1
1
1
1
1
1
1
1
1
1
1
1
1
1
1
1
1
1
1
1
1
1
1
1
1
1
1
1
1
1
1
1
1
1
1
1
1
1
1
1
1
1
1
1
1
1
1
1
1
1
1
1
1
1
1
1
1
1
1
1
1
1
1
1
1
1
1
1
1
1
1
1
1
1
1
1
1
1
1
1
1
1
1
1
1
1
1
1
1
1
1
1
1
1
1
1
1
1
1
1
1
1
1
1
1
1
1
1
1
1
1
1
1
1
1
1
1
1
1
1
1
1
1
1
1
1
1
1
1
1
1
1
1
1
1
1
1
1
1
1
1
1
1
1
1
1
1
1
1
1
1
1
1
1
1
1
1
1
1
1
1
1
1
1
1
1
1
1
1
1
1
1
1
1
1
1
1
1
1
1
1
1
1
1
1
1
1
1
1
1
1
1
1
1
1
1
1
1
1
1
1
1
1
1
1
1
1
1
1
1
1
1
1
1
1
1
1
1
1
1
1
1
1
1
1
1
1
1
1
1
1
1
1
1
1
1
1
1
1
1
1
1
1
1
1
1
1
1
1
1
1
1
1
1
1
1
1
1
1
1
1
1
1
1
1
1
1
1
1
1
1
1
1
1
1
1
1
1
1
1
1
1
1
1
1
1
1
1
1
1
1
1
1
1
1
1
1
1
1
1
1
1
1
1
1
1
1
1
1
1
1
1
1
1
1
1
1
1
1
1
1
1
1
1
1
1
1
1
1
1
1
1
1
1
1
1
1
1
1
1
1
1
1
1
1
1
1
1
1
1
1
1
1
1
1
1
1
1
1
1
1
1
1
1
1
1
1
1
1
1
1
1
1
1
1
1
1
1
1
1
1
1
1
1
1
1
1
1
1
1
1
1
1
1
1
1
1
1
1
1
1
1
1
1
1
1
1
1
1
1
1
1
1
1
1
1
1
1
1
1
1
1
1
1
1
1
1
1
1
1
1
1
1
1
1
1
1
1
1
1
1
1
1
1
1
1
1
1
1
1
1
1
1
1
1
1
1
1
1
1
1
1
1
1
1
1
1
1
1
1
1
1
1
1
1
1
1
1
1
1
1
1
1
1
1
1
1
1
1
1
1
1
1
1
1
1
1
1
1
1
1
1
1
1
1
1
1
1
1
1
1
1
1
1
1
1
1
1
1
1
1
1
1
1
1
1
1
1
1
1
1
1
1
1
1
1
1
1
1
1
1
1
1
1
1
1
1
1
1
1
1
1
1
1
1
1
1
1
1
1
1
1
1
1
1
1
1
1
1
1
1
1
1
1
1
1
1
1
1
1
1
1
1
1
1
1
1
1
1
1
1
1
1
1
1
1
1
1
1
1
1
1
1
1
1
1
1
1
1
1
1
1
1
1
1
1
1
1
1
1
1
1
1
1
1
1
1
1
1
1
1
1
1
1
1
1
1
1
1
1
1
1
1
1
1
1
1
1
1
1
1
1
1
1
1
1
1
1
1
1
1
1
1
1
1
1
1
1
1
1
1
1
1
1
1
1
1
1
1
1
1
1
1
1
1
1
1
1
1
1
1
1
1
1
1
1
1
1
1
1
1
1
1
1
1
1
1
1
1
1
1
1
1
1
1
1
1
1
1
1
1
1
1
1
1
1
1
1
1
1
1
1
1
1
1
1
1
1
1
1
1
1
1
1
1
1
1
1
1
1
1
1
1
1
1
1
1
1
1
1
1
1
1
1
1
1
1
1
1
1
1
1
1
1
1
1
1
1
1
1
1
1
1
1
1
1
1
1
1
1
1
1
1
1
1
1
1
1
1
1
1
1
1
1
1
1
1
1
1
1
1
1
1
1
1.27476
1.69749
2.20726
2.68086
3.10853
3.53873
3.78784
3.91838
3.84309
3.6548
3.39993
3.14392
2.9676
2.90323
2.87104
2.85797
2.86748
2.8906
2.90664
2.92347
2.94422
2.96175
2.97331
2.97648
2.9785
2.98652
2.99222
2.99305
2.99257
2.98808
2.98027
2.97855
2.97911
2.98105
2.98415
2.98675
2.98751
2.98646
2.98409
2.98187
2.98012
2.97832
2.97718
2.97695
2.97703
2.9778
2.97973
2.98186
2.98283
2.98309
2.98296
2.98231
2.98215
2.98233
2.98237
2.98227
2.98214
2.98194
2.98163
2.98137
2.98126
2.98124
2.98139
2.98139
2.98136
2.98138
2.98135
2.98109
2.98069
2.98055
2.98061
2.98079
2.98119
2.98186
2.98248
2.98273
2.98291
2.98303
2.98302
2.98188
1.00909
1.04127
1.12132
1.2927
1.53218
1.85579
2.20505
2.59778
2.83583
2.98345
3.17418
3.16942
3.10796
3.06307
3.04285
2.99527
2.95919
2.93781
2.91953
2.92158
2.92955
2.94307
2.95694
2.963
2.96593
2.97013
2.97139
2.97285
2.97444
2.9749
2.97538
2.97653
2.97843
2.98148
2.98437
2.98571
2.98606
2.98552
2.98422
2.98334
2.9828
2.98218
2.98193
2.98186
2.98197
2.98241
2.98334
2.98383
2.9838
2.98353
2.98289
2.98224
2.9823
2.98266
2.98301
2.98321
2.98319
2.98311
2.98288
2.98253
2.98243
2.9824
2.98249
2.98251
2.98245
2.98241
2.98235
2.98216
2.98178
2.98157
2.98162
2.98182
2.98218
2.98273
2.98332
2.98356
2.98365
2.98369
2.9836
2.98233
1
1.00008
1.00079
1.00495
1.02187
1.07175
1.21785
1.48751
2.01326
2.58203
3.05754
3.2335
3.27364
3.25497
3.21538
3.1406
3.03018
2.95536
2.91963
2.92177
2.93355
2.95131
2.95576
2.95531
2.95611
2.95704
2.95862
2.96226
2.96577
2.96981
2.97412
2.97518
2.97572
2.97697
2.97789
2.97883
2.98003
2.98092
2.98149
2.98217
2.98291
2.98375
2.98437
2.98457
2.98464
2.98473
2.98483
2.98463
2.98425
2.98372
2.98301
2.98253
2.98262
2.98311
2.98364
2.98399
2.98399
2.98385
2.98362
2.98334
2.98329
2.98332
2.98345
2.98344
2.98329
2.98321
2.98314
2.98298
2.98264
2.98242
2.98252
2.98272
2.98303
2.98359
2.98421
2.98437
2.98437
2.98432
2.98411
2.98275
1
1
1
1
1.00002
1.00026
1.00263
1.01349
1.09425
1.33571
1.83937
2.42906
2.8504
3.11008
3.10685
3.11142
3.12036
3.09685
3.04525
3.00432
2.97908
2.96286
2.9487
2.94013
2.94407
2.9513
2.9622
2.96989
2.97222
2.97245
2.97474
2.97559
2.97594
2.97614
2.97524
2.97481
2.97482
2.97534
2.97708
2.97858
2.9799
2.98155
2.98289
2.98313
2.98323
2.98321
2.9831
2.98273
2.98197
2.98112
2.98044
2.98035
2.98074
2.98136
2.98221
2.98316
2.98339
2.98324
2.9831
2.98293
2.98297
2.98313
2.98335
2.9836
2.98347
2.9833
2.98319
2.98307
2.9827
2.98255
2.98277
2.98311
2.98353
2.98421
2.98486
2.98498
2.98487
2.98466
2.98423
2.98273
1
1
1
1
1
1
1
1
1.00041
1.00596
1.04812
1.27321
1.66259
2.28204
2.70558
3.04821
3.16623
3.16053
3.13639
3.08806
3.01808
2.96744
2.94971
2.94654
2.95142
2.96539
2.97557
2.97908
2.97978
2.97877
2.98025
2.98358
2.98424
2.98336
2.98124
2.97911
2.97703
2.97589
2.97681
2.97823
2.97928
2.98062
2.98197
2.98225
2.98248
2.98259
2.98246
2.98192
2.98074
2.97957
2.97916
2.9793
2.97965
2.98027
2.98113
2.98214
2.98226
2.98197
2.98169
2.98122
2.98113
2.98115
2.98122
2.98175
2.98202
2.98189
2.9818
2.98167
2.98135
2.98136
2.98168
2.98206
2.98249
2.98322
2.98398
2.98413
2.98399
2.98372
2.98324
2.98189
1
1
1
1
1
1
1
1
1
0.999997
1.00012
1.00398
1.02908
1.1764
1.57919
2.1298
2.61821
2.85834
3.00946
2.998
2.99725
3.01144
3.00604
2.98001
2.97262
2.9709
2.97173
2.97303
2.97428
2.97454
2.97897
2.98784
2.99191
2.99216
2.99044
2.98746
2.98267
2.98016
2.98062
2.98123
2.9814
2.98249
2.98333
2.98327
2.98308
2.98315
2.98316
2.98244
2.9812
2.98009
2.97976
2.98012
2.98083
2.98161
2.98253
2.98338
2.98312
2.98269
2.98213
2.98132
2.98113
2.98096
2.98085
2.98135
2.98192
2.98182
2.98172
2.98152
2.98128
2.98132
2.98151
2.98168
2.98194
2.98249
2.98313
2.98341
2.98333
2.98305
2.9826
2.98142
1
1
1
1
1
1
1
1
1
1
1
0.999998
1.00004
1.00186
1.02545
1.12308
1.47369
1.97586
2.5843
2.82079
2.96995
3.03955
3.03426
3.0205
2.97087
2.9376
2.93544
2.939
2.94702
2.95482
2.96071
2.96896
2.97841
2.98568
2.98834
2.9874
2.98378
2.98062
2.98079
2.98091
2.9811
2.98272
2.98384
2.98392
2.98438
2.98531
2.98549
2.98492
2.98384
2.98277
2.98229
2.98249
2.98318
2.98373
2.98454
2.9851
2.98458
2.98404
2.98323
2.98231
2.98201
2.98169
2.98139
2.98174
2.98258
2.98271
2.98259
2.98232
2.98209
2.98203
2.98195
2.98184
2.98194
2.98238
2.98287
2.98318
2.98332
2.98304
2.98257
2.9813
1
1
1
1
1
1
1
1
1
1
1
1
1
0.999998
1.00004
1.00096
1.018
1.10147
1.37353
1.89957
2.43486
2.85658
2.9117
2.97253
2.97565
2.95491
2.95229
2.94484
2.93933
2.94241
2.94594
2.94928
2.95595
2.96259
2.96882
2.97082
2.97034
2.9711
2.97368
2.97484
2.97611
2.97815
2.97976
2.98088
2.98267
2.984
2.98449
2.98462
2.98426
2.98353
2.98333
2.98384
2.98461
2.98522
2.98593
2.98607
2.9853
2.98438
2.98344
2.98249
2.98203
2.98168
2.98132
2.98159
2.98254
2.9828
2.98274
2.98251
2.98227
2.98219
2.98212
2.98202
2.98207
2.98236
2.98277
2.98304
2.98333
2.98327
2.98285
2.9814
1
1
1
1
1
1
1
1
1
1
1
1
1
1
1
0.999999
1.00002
1.00077
1.01034
1.0955
1.31602
1.79664
2.31635
2.7804
2.95938
2.98896
3.0045
2.99637
2.97512
2.96335
2.95605
2.95162
2.95145
2.95274
2.95672
2.96081
2.9638
2.96779
2.97137
2.97271
2.97362
2.97473
2.97621
2.97753
2.97864
2.97912
2.9794
2.97969
2.97994
2.9798
2.97994
2.98106
2.98253
2.98386
2.98467
2.98456
2.98349
2.98221
2.98131
2.98074
2.98056
2.98049
2.9808
2.98186
2.9831
2.98342
2.98345
2.98331
2.98317
2.98294
2.98264
2.98244
2.98252
2.98285
2.98328
2.98356
2.98381
2.98382
2.98338
2.98157
1
1
1
1
1
1
1
1
1
1
1
1
1
1
1
1
1
0.999999
1.00001
1.00076
1.00763
1.07216
1.29971
1.74917
2.26573
2.68398
2.90767
2.98088
3.00254
2.99893
2.99273
2.98665
2.98295
2.9774
2.97737
2.9786
2.97851
2.97987
2.98153
2.98188
2.98104
2.98041
2.98057
2.98053
2.97931
2.9781
2.9779
2.97798
2.97853
2.97884
2.97917
2.98018
2.98168
2.98279
2.98309
2.98257
2.98112
2.97982
2.97928
2.97939
2.97958
2.97988
2.98068
2.98211
2.98314
2.98336
2.98346
2.98344
2.98342
2.98333
2.98307
2.98277
2.9827
2.98307
2.98378
2.98426
2.98454
2.98468
2.98428
2.98216
1
1
1
1
1
1
1
1
1
1
1
1
1
1
1
1
1
1
1
0.999999
1
1.00057
1.00806
1.0596
1.30957
1.7354
2.23268
2.59583
2.86524
2.94189
2.97653
2.9916
2.99697
2.99274
2.98576
2.9833
2.98245
2.98407
2.98854
2.99113
2.9914
2.99083
2.99036
2.9897
2.98786
2.98549
2.98405
2.98299
2.98258
2.98262
2.98219
2.9822
2.9829
2.98316
2.98315
2.98246
2.98094
2.97934
2.97858
2.97885
2.97925
2.97974
2.98071
2.98223
2.98317
2.98316
2.98311
2.98297
2.98253
2.98237
2.98219
2.98196
2.98197
2.98256
2.98362
2.98454
2.98505
2.98506
2.98454
2.98226
1
1
1
1
1
1
1
1
1
1
1
1
1
1
1
1
1
1
1
1
1
0.999999
1.00001
1.00043
1.00983
1.05697
1.27167
1.71579
2.29346
2.59861
2.79853
2.88054
2.93368
2.95238
2.94978
2.95658
2.96617
2.96832
2.97199
2.97641
2.98094
2.98487
2.98686
2.98686
2.98599
2.98438
2.983
2.98294
2.98348
2.98401
2.98446
2.98441
2.98465
2.985
2.98524
2.98482
2.98356
2.98201
2.98067
2.98055
2.98102
2.98143
2.9821
2.98319
2.98324
2.98271
2.98245
2.98232
2.98191
2.98142
2.98121
2.98111
2.98125
2.98183
2.98307
2.98449
2.985
2.98491
2.98429
2.98168
1
1
1
1
1
1
1
1
1
1
1
1
1
1
1
1
1
1
1
1
1
1
1
0.999999
1.00001
1.00039
1.00861
1.06285
1.26618
1.73185
2.31858
2.73154
2.83614
2.90732
2.92153
2.93939
2.94433
2.94318
2.94617
2.95243
2.95858
2.96457
2.96993
2.97382
2.97596
2.97622
2.97643
2.97762
2.97887
2.97981
2.98092
2.98174
2.98225
2.98307
2.98388
2.98405
2.9834
2.98283
2.98234
2.98222
2.9828
2.98339
2.98412
2.98461
2.98427
2.98354
2.98279
2.98226
2.98154
2.98082
2.98051
2.98049
2.98077
2.98146
2.98271
2.98429
2.9855
2.98562
2.98509
2.98222
1
1
1
1
1
1
1
1
1
1
1
1
1
1
1
1
1
1
1
1
1
1
1
1
1
0.999999
1.00001
1.00053
1.00823
1.07949
1.30077
1.78363
2.33058
2.7584
2.91841
2.96114
2.97141
2.95915
2.96068
2.96254
2.96191
2.96119
2.96415
2.97022
2.97344
2.97382
2.97393
2.97419
2.97506
2.97624
2.9777
2.97886
2.97941
2.9802
2.98112
2.98147
2.98128
2.98147
2.9818
2.98193
2.98262
2.98338
2.98414
2.9843
2.98409
2.98365
2.98296
2.98232
2.98168
2.98108
2.98066
2.98057
2.98082
2.98139
2.98228
2.98378
2.98534
2.98577
2.98543
2.98304
1
1
1
1
1
1
1
1
1
1
1
1
1
1
1
1
1
1
1
1
1
1
1
1
1
1
1
0.999999
1.00002
1.00096
1.01043
1.09688
1.3528
1.85053
2.3912
2.78672
2.92863
2.97566
2.99291
2.99569
2.99309
2.9899
2.9867
2.98781
2.98974
2.98836
2.98546
2.98317
2.98212
2.98171
2.98207
2.98195
2.9811
2.98081
2.98103
2.98123
2.98122
2.98165
2.98201
2.98183
2.98237
2.98315
2.98368
2.98377
2.98366
2.98332
2.98247
2.98145
2.98084
2.98061
2.98058
2.9807
2.9809
2.98129
2.98205
2.98312
2.9846
2.98539
2.98552
2.9837
1
1
1
1
1
1
1
1
1
1
1
1
1
1
1
1
1
1
1
1
1
1
1
1
1
1
1
1
1
0.999999
1.00003
1.00154
1.01492
1.12078
1.45349
1.98285
2.44047
2.77285
2.92483
2.97127
2.98133
2.99437
2.99498
2.99139
2.99142
2.99185
2.99064
2.98897
2.98816
2.98703
2.98615
2.98541
2.98457
2.98393
2.98358
2.98326
2.98314
2.98344
2.98323
2.98233
2.98263
2.98324
2.98374
2.98384
2.98378
2.98365
2.98292
2.98147
2.98037
2.98017
2.98049
2.98094
2.98129
2.98135
2.98155
2.98249
2.98355
2.98447
2.98514
2.984
1
1
1
1
1
1
1
1
1
1
1
1
1
1
1
1
1
1
1
1
1
1
1
1
1
1
1
1
1
1
1
1
1.00006
1.00257
1.0258
1.15903
1.57084
2.18587
2.58939
2.78597
2.87293
2.93943
2.955
2.95247
2.95622
2.96444
2.97168
2.97707
2.98042
2.98199
2.98281
2.98289
2.98237
2.98144
2.98104
2.98163
2.98286
2.98385
2.9835
2.98191
2.98161
2.9819
2.98239
2.98273
2.9832
2.98379
2.98359
2.98193
2.98003
2.97948
2.9801
2.98095
2.98178
2.98213
2.98184
2.98188
2.98266
2.98347
2.98433
2.98382
1
1
1
1
1
1
1
1
1
1
1
1
1
1
1
1
1
1
1
1
1
1
1
1
1
1
1
1
1
1
1
1
1
1
1.00016
1.00459
1.05034
1.2447
1.72537
2.35103
2.78452
2.88704
2.93317
2.93359
2.94147
2.94686
2.9538
2.96245
2.96859
2.97203
2.97304
2.97424
2.97509
2.97549
2.97665
2.97954
2.98152
2.98225
2.98201
2.98074
2.98017
2.98011
2.9805
2.98126
2.98203
2.98293
2.98308
2.9817
2.97968
2.97888
2.97954
2.9806
2.98163
2.98244
2.98251
2.98175
2.98176
2.98234
2.98313
2.98297
1
1
1
1
1
1
1
1
1
1
1
1
1
1
1
1
1
1
1
1
1
1
1
1
1
1
1
1
1
1
1
1
1
1
1
1.00001
1.00057
1.00955
1.09258
1.37508
1.94514
2.52261
2.86491
2.95242
2.97872
2.98936
2.98503
2.98222
2.98077
2.98121
2.98067
2.97834
2.97633
2.97539
2.97607
2.9785
2.98072
2.98164
2.98195
2.98166
2.98124
2.98097
2.98103
2.9813
2.98177
2.98238
2.98249
2.98168
2.9802
2.97905
2.97925
2.98017
2.9812
2.98224
2.98294
2.98245
2.98172
2.98154
2.98179
2.98151
1
1
1
1
1
1
1
1
1
1
1
1
1
1
1
1
1
1
1
1
1
1
1
1
1
1
1
1
1
1
1
1
1
1
1
1
1
1.00005
1.00178
1.02231
1.17722
1.57532
2.17664
2.65925
2.89604
2.97983
2.99832
3.00316
2.9982
2.99655
2.9953
2.99211
2.98763
2.98293
2.97966
2.97996
2.98133
2.98296
2.98454
2.98502
2.9847
2.98359
2.9823
2.98181
2.98193
2.9823
2.98263
2.98245
2.98176
2.98076
2.98009
2.98006
2.98073
2.98167
2.98264
2.98294
2.98244
2.98186
2.98125
2.98005
1
1
1
1
1
1
1
1
1
1
1
1
1
1
1
1
1
1
1
1
1
1
1
1
1
1
1
1
1
1
1
1
1
1
1
1
1
1
1
1.0002
1.00571
1.05319
1.32544
1.89185
2.42824
2.74645
2.87084
2.94973
2.96777
2.97637
2.98095
2.98393
2.98478
2.98183
2.97741
2.97557
2.97675
2.97952
2.98308
2.98528
2.98539
2.98456
2.98256
2.98119
2.98109
2.9816
2.9824
2.98323
2.9838
2.98372
2.98286
2.98145
2.98071
2.9811
2.98161
2.98214
2.98263
2.98259
2.98192
2.97963
1
1
1
1
1
1
1
1
1
1
1
1
1
1
1
1
1
1
1
1
1
1
1
1
1
1
1
1
1
1
1
1
1
1
1
1
1
1
1
1
1.00002
1.00092
1.01948
1.13604
1.53905
2.22342
2.71626
2.84824
2.90669
2.94432
2.95527
2.96319
2.97107
2.97191
2.96987
2.9686
2.96933
2.97147
2.97494
2.98063
2.98392
2.98372
2.98236
2.97989
2.97926
2.97974
2.98127
2.98409
2.98636
2.98689
2.98655
2.98419
2.98107
2.97985
2.97987
2.98073
2.9819
2.98286
2.98286
2.98054
1
1
1
1
1
1
1
1
1
1
1
1
1
1
1
1
1
1
1
1
1
1
1
1
1
1
1
1
1
1
1
1
1
1
1
1
1
1
1
1
1
1
1.00016
1.0042
1.05771
1.30044
1.89999
2.50124
2.8814
2.96871
2.97038
2.9857
2.98534
2.98338
2.98053
2.97666
2.97422
2.97329
2.97352
2.97676
2.98204
2.98345
2.98295
2.9809
2.97941
2.97955
2.98086
2.98389
2.9866
2.98715
2.98694
2.98523
2.98171
2.97868
2.97794
2.97838
2.97969
2.9817
2.98212
2.98157
1
1
1
1
1
1
1
1
1
1
1
1
1
1
1
1
1
1
1
1
1
1
1
1
1
1
1
1
1
1
1
1
1
1
1
1
1
1
1
1
1
1
1
1.00002
1.0011
1.01791
1.17711
1.60318
2.26642
2.7368
2.91006
2.99018
2.99832
3.00191
2.99885
2.99346
2.98791
2.98199
2.9777
2.97726
2.98066
2.98472
2.98582
2.98607
2.98509
2.98359
2.9829
2.98362
2.98568
2.98674
2.98654
2.98509
2.9825
2.97901
2.97706
2.97711
2.97759
2.97871
2.98017
2.98451
1
1
1
1
1
1
1
1
1
1
1
1
1
1
1
1
1
1
1
1
1
1
1
1
1
1
1
1
1
1
1
1
1
1
1
1
1
1
1
1
1
1
1
1
1
1.00022
1.00707
1.07409
1.38905
2.10169
2.56829
2.80552
2.92069
2.94182
2.95212
2.97326
2.98329
2.97979
2.97507
2.9725
2.97432
2.97985
2.98556
2.98891
2.98987
2.98917
2.98649
2.98375
2.98259
2.98306
2.98362
2.98343
2.98259
2.981
2.97843
2.97692
2.97684
2.97737
2.97826
3.00309
1
1
1
1
1
1
1
1
1
1
1
1
1
1
1
1
1
1
1
1
1
1
1
1
1
1
1
1
1
1
1
1
1
1
1
1
1
1
1
1
1
1
1
1
1
1
1.00004
1.00206
1.0315
1.24511
1.8118
2.46583
2.88807
2.90083
2.92607
2.95425
2.96873
2.97846
2.97592
2.97197
2.97095
2.97273
2.97526
2.98237
2.98911
2.98953
2.98809
2.98428
2.98051
2.97933
2.97935
2.9798
2.98116
2.98145
2.9812
2.98016
2.97845
2.9775
2.97825
3.10603
1
1
1
1
1
1
1
1
1
1
1
1
1
1
1
1
1
1
1
1
1
1
1
1
1
1
1
1
1
1
1
1
1
1
1
1
1
1
1
1
1
1
1
1
1
1
1
1.00001
1.00052
1.0146
1.15032
1.55163
2.32107
2.75998
2.93064
2.99738
3.00208
2.99996
2.998
2.99558
2.98639
2.97085
2.96679
2.96947
2.98064
2.98841
2.98893
2.98696
2.98214
2.9782
2.97701
2.97726
2.97872
2.98152
2.98252
2.98248
2.98129
2.97973
2.98302
3.50139
1
1
1
1
1
1
1
1
1
1
1
1
1
1
1
1
1
1
1
1
1
1
1
1
1
1
1
1
1
1
1
1
1
1
1
1
1
1
1
1
1
1
1
1
1
1
1
1
1
1.0002
1.00619
1.07097
1.41447
2.15836
2.60445
2.87708
2.96661
2.9627
2.97925
3.00378
3.00533
2.9879
2.96623
2.96577
2.97227
2.98358
2.98944
2.98917
2.98727
2.98203
2.97739
2.97722
2.97886
2.98077
2.98214
2.98225
2.98191
2.9853
3.05375
4.44894
1
1
1
1
1
1
1
1
1
1
1
1
1
1
1
1
1
1
1
1
1
1
1
1
1
1
1
1
1
1
1
1
1
1
1
1
1
1
1
1
1
1
1
1
1
1
1
1
1
1
1.00005
1.00236
1.03759
1.34098
1.94008
2.63735
2.85681
2.86616
2.91852
2.97159
3.00414
2.99387
2.97375
2.96495
2.97102
2.97617
2.98299
2.98787
2.98712
2.98547
2.98296
2.98132
2.98159
2.98137
2.98059
2.9805
2.98225
3.06106
3.68526
5.79957
1
1
1
1
1
1
1
1
1
1
1
1
1
1
1
1
1
1
1
1
1
1
1
1
1
1
1
1
1
1
1
1
1
1
1
1
1
1
1
1
1
1
1
1
1
1
1
1
1
1
1
1.00002
1.00098
1.03203
1.21501
1.73756
2.53992
2.83853
2.93876
2.99169
3.00552
2.99577
2.98617
2.97824
2.97642
2.97577
2.97578
2.97949
2.98274
2.98567
2.98677
2.98711
2.98694
2.98451
2.9798
2.98026
3.03762
3.6906
5.32926
6.68674
1
1
1
1
1
1
1
1
1
1
1
1
1
1
1
1
1
1
1
1
1
1
1
1
1
1
1
1
1
1
1
1
1
1
1
1
1
1
1
1
1
1
1
1
1
1
1
1
1
1
1
1
1.00001
1.0007
1.01368
1.12699
1.67946
2.40213
2.74518
2.95587
2.98531
2.97026
2.97208
2.98908
2.99708
2.9916
2.97988
2.97527
2.97534
2.97913
2.98462
2.98786
2.98847
2.98696
2.9839
3.03863
3.59659
5.28047
6.79037
7.09959
1
1
1
1
1
1
1
1
1
1
1
1
1
1
1
1
1
1
1
1
1
1
1
1
1
1
1
1
1
1
1
1
1
1
1
1
1
1
1
1
1
1
1
1
1
1
1
1
1
1
1
1
1
1
1.00019
1.00707
1.10416
1.62787
2.27148
2.85049
2.92068
2.89539
2.93831
2.97307
3.00191
3.00009
2.98866
2.98326
2.978
2.97725
2.97801
2.97891
2.9811
2.98594
3.02993
3.60152
5.23061
6.41329
7.15926
7.18596
1
1
1
1
1
1
1
1
1
1
1
1
1
1
1
1
1
1
1
1
1
1
1
1
1
1
1
1
1
1
1
1
1
1
1
1
1
1
1
1
1
1
1
1
1
1
1
1
1
1
1
1
1
1
1
1.00013
1.00539
1.10825
1.45822
2.1862
2.79673
2.89871
2.95958
2.98139
2.99064
2.99281
2.99226
2.99673
2.99345
2.98186
2.9729
2.97056
2.97205
3.02745
3.53762
5.16131
6.7854
7.00329
7.15681
7.17449
1
1
1
1
1
1
1
1
1
1
1
1
1
1
1
1
1
1
1
1
1
1
1
1
1
1
1
1
1
1
1
1
1
1
1
1
1
1
1
1
1
1
1
1
1
1
1
1
1
1
1
1
1
1
1
1
1.00009
1.005
1.06134
1.34908
2.2078
2.69421
2.86523
2.95032
2.97597
2.96207
2.95639
2.98112
2.99588
2.99255
2.97929
2.974
3.01969
3.6174
5.27222
6.39785
7.13244
7.16577
7.17463
7.14326
1
1
1
1
1
1
1
1
1
1
1
1
1
1
1
1
1
1
1
1
1
1
1
1
1
1
1
1
1
1
1
1
1
1
1
1
1
1
1
1
1
1
1
1
1
1
1
1
1
1
1
1
1
1
1
1
1
1.00005
1.00244
1.03814
1.39303
2.17763
2.68639
2.96206
2.998
2.96327
2.95102
2.97406
2.98542
2.98919
2.98664
3.05228
3.66173
5.33463
6.94278
7.01156
7.10946
7.16219
7.1602
7.13183
1
1
1
1
1
1
1
1
1
1
1
1
1
1
1
1
1
1
1
1
1
1
1
1
1
1
1
1
1
1
1
1
1
1
1
1
1
1
1
1
1
1
1
1
1
1
1
1
1
1
1
1
1
1
1
1
1
1
1.00003
1.00176
1.05369
1.4374
2.03063
2.72902
2.97439
2.99297
2.98286
2.97299
2.96495
2.96574
3.05721
3.79618
5.65399
6.64021
7.25947
7.19576
7.12098
7.13516
7.13961
7.12287
1
1
1
1
1
1
1
1
1
1
1
1
1
1
1
1
1
1
1
1
1
1
1
1
1
1
1
1
1
1
1
1
1
1
1
1
1
1
1
1
1
1
1
1
1
1
1
1
1
1
1
1
1
1
1
1
1
1
1
1.00004
1.00288
1.05601
1.34418
2.0353
2.70187
2.89143
2.93549
2.92871
2.93384
3.08796
3.87818
5.54553
7.08806
7.10598
7.187
7.16951
7.14335
7.14496
7.15716
7.14048
1
1
1
1
1
1
1
1
1
1
1
1
1
1
1
1
1
1
1
1
1
1
1
1
1
1
1
1
1
1
1
1
1
1
1
1
1
1
1
1
1
1
1
1
1
1
1
1
1
1
1
1
1
1
1
1
1
1
1
1
1.00005
1.0021
1.04171
1.28117
2.03777
2.81625
2.87395
2.93544
3.12719
4.10806
5.84691
6.92576
7.352
7.29739
7.18684
7.12386
7.12383
7.15637
7.18348
7.16679
1
1
1
1
1
1
1
1
1
1
1
1
1
1
1
1
1
1
1
1
1
1
1
1
1
1
1
1
1
1
1
1
1
1
1
1
1
1
1
1
1
1
1
1
1
1
1
1
1
1
1
1
1
1
1
1
1
1
1
1
1
1.00002
1.00176
1.02937
1.38572
2.22833
2.68223
3.4188
4.3596
5.69891
6.76819
7.25899
7.28166
7.21403
7.1213
7.10702
7.12185
7.1526
7.18902
7.17549
1
1
1
1
1
1
1
1
1
1
1
1
1
1
1
1
1
1
1
1
1
1
1
1
1
1
1
1
1
1
1
1
1
1
1
1
1
1
1
1
1
1
1
1
1
1
1
1
1
1
1
1
1
1
1
1
1
1
1
1
1
1
1.00003
1.00163
1.07119
1.52581
2.80223
4.42198
6.64887
7.83539
7.74377
7.45169
7.17433
7.09276
7.07317
7.0867
7.10959
7.14335
7.18144
7.1746
)
;

boundaryField
{
    inlet
    {
        type            fixedValue;
        value           uniform 1;
    }
    outlet
    {
        type            zeroGradient;
    }
    bottom
    {
        type            symmetryPlane;
    }
    top
    {
        type            symmetryPlane;
    }
    obstacle
    {
        type            zeroGradient;
    }
    defaultFaces
    {
        type            empty;
    }
}


// ************************************************************************* //
