/*--------------------------------*- C++ -*----------------------------------*\
| =========                 |                                                 |
| \\      /  F ield         | OpenFOAM: The Open Source CFD Toolbox           |
|  \\    /   O peration     | Version:  2206                                  |
|   \\  /    A nd           | Website:  www.openfoam.com                      |
|    \\/     M anipulation  |                                                 |
\*---------------------------------------------------------------------------*/
FoamFile
{
    version     2.0;
    format      ascii;
    arch        "LSB;label=32;scalar=64";
    class       volScalarField;
    location    "0.12";
    object      rho;
}
// * * * * * * * * * * * * * * * * * * * * * * * * * * * * * * * * * * * * * //

dimensions      [1 -3 0 0 0 0 0];

internalField   nonuniform List<scalar> 
4800
(
1.40001
1.40001
1.40001
1.40001
1.40001
1.40001
1.40001
1.40001
1.40001
1.40001
1.40001
1.40001
1.40001
1.40001
1.40001
1.40001
1.40001
1.40001
1.40001
1.40001
1.40001
1.40001
1.40001
1.40001
1.40001
1.40001
1.40001
1.40001
1.40001
1.40001
1.40001
1.40001
1.40001
1.40001
1.40001
1.40001
1.40001
1.40001
1.40001
1.40001
1.40001
1.40001
1.40001
1.40001
1.40001
1.40001
1.40001
1.40001
1.40001
1.40001
1.40001
1.40001
1.40001
1.40001
1.40001
1.40001
1.40001
1.40001
1.40001
1.40001
1.40001
1.40001
1.40001
1.40001
1.40001
1.40001
1.40001
1.40001
1.40001
1.40001
1.40001
1.40001
1.40001
1.40001
1.40001
1.40001
1.40001
1.40001
1.40001
1.40001
1.40001
1.40001
1.40001
1.40001
1.40001
1.40001
1.40001
1.40001
1.40001
1.40001
1.40001
1.40001
1.40001
1.40001
1.40001
1.40001
1.40001
1.40001
1.40001
1.40001
1.40001
1.40001
1.40001
1.40001
1.40001
1.40001
1.40001
1.40001
1.40001
1.40001
1.40001
1.40001
1.40001
1.40001
1.40001
1.40001
1.40001
1.40001
1.40001
1.40001
1.40001
1.40001
1.40001
1.40001
1.40001
1.40001
1.40001
1.40001
1.40001
1.40001
1.40001
1.40001
1.40001
1.40001
1.40001
1.40001
1.40001
1.40001
1.40001
1.40001
1.40001
1.40001
1.40001
1.40001
1.40001
1.40001
1.40001
1.40001
1.40001
1.40001
1.40001
1.40001
1.40001
1.40001
1.40001
1.40001
1.40001
1.40001
1.40001
1.40001
1.40001
1.40001
1.40001
1.40001
1.40001
1.40001
1.40001
1.40001
1.40001
1.40001
1.40001
1.40001
1.40001
1.40001
1.40001
1.40001
1.40001
1.40001
1.40001
1.40001
1.40001
1.40001
1.40001
1.40001
1.40001
1.40001
1.40001
1.40001
1.40001
1.40001
1.40001
1.40001
1.40001
1.40001
1.40001
1.40001
1.40001
1.40001
1.40001
1.40001
1.40001
1.40001
1.40001
1.40001
1.40001
1.40001
1.40001
1.40001
1.40001
1.40001
1.40001
1.40001
1.40001
1.40001
1.40001
1.40001
1.40001
1.40001
1.40001
1.40001
1.40001
1.40001
1.40001
1.40001
1.40001
1.40001
1.40001
1.40001
1.40001
1.40001
1.40001
1.40001
1.40001
1.40001
1.40001
1.40001
1.40001
1.40001
1.40001
1.40001
1.40001
1.40001
1.40001
1.40001
1.40001
1.40001
1.40001
1.40001
1.40001
1.40001
1.40001
1.40001
1.40001
1.40001
1.40001
1.40001
1.40001
1.40001
1.40001
1.40001
1.40001
1.40001
1.40001
1.40001
1.40001
1.40001
1.40001
1.40001
1.40001
1.40001
1.40001
1.40001
1.40001
1.40001
1.40001
1.40001
1.40001
1.40001
1.40001
1.40001
1.40001
1.40001
1.40001
1.40001
1.40001
1.40001
1.40001
1.40001
1.40001
1.40001
1.40001
1.40001
1.40001
1.40001
1.40001
1.40001
1.40001
1.40001
1.40001
1.40001
1.40001
1.40001
1.40001
1.40001
1.40001
1.40001
1.40001
1.40001
1.40001
1.40001
1.40001
1.40001
1.40001
1.40001
1.40001
1.40001
1.40001
1.40001
1.40001
1.40001
1.40001
1.40001
1.40001
1.40001
1.40001
1.40001
1.40001
1.40001
1.40001
1.40001
1.40001
1.40001
1.40001
1.40001
1.40001
1.40001
1.40001
1.40001
1.40001
1.40001
1.40001
1.40001
1.40001
1.40001
1.40001
1.40001
1.40001
1.40001
1.40001
1.40001
1.40001
1.40001
1.40001
1.40001
1.40001
1.40001
1.40001
1.40001
1.40001
1.40001
1.40001
1.40001
1.40001
1.40001
1.40001
1.40001
1.40001
1.40001
1.40001
1.40001
1.40001
1.40001
1.40001
1.40001
1.40001
1.40001
1.40001
1.40001
1.40001
1.40001
1.40001
1.40001
1.40001
1.40001
1.40001
1.40001
1.40001
1.40001
1.40001
1.40001
1.40001
1.40001
1.40001
1.40001
1.40001
1.40001
1.40001
1.40001
1.40001
1.40001
1.40001
1.40001
1.40001
1.40001
1.40001
1.40001
1.40001
1.40001
1.40001
1.40001
1.40001
1.40001
1.40001
1.40001
1.40001
1.40001
1.40001
1.40001
1.40001
1.40001
1.40001
1.40001
1.40001
1.40001
1.40001
1.40001
1.40001
1.40001
1.40001
1.40001
1.40001
1.40001
1.40001
1.40001
1.40001
1.40001
1.40001
1.40001
1.40001
1.40001
1.40001
1.40001
1.40001
1.40001
1.40001
1.40001
1.40001
1.40001
1.40001
1.40001
1.40001
1.40001
1.40001
1.40001
1.40001
1.40001
1.40001
1.40001
1.40001
1.40001
1.40001
1.40001
1.40001
1.40001
1.40001
1.40001
1.40001
1.40001
1.40001
1.40001
1.40001
1.40001
1.40001
1.40001
1.40001
1.40001
1.40001
1.40001
1.40001
1.40001
1.40001
1.40001
1.40001
1.40001
1.40001
1.40001
1.40001
1.40001
1.40001
1.40001
1.40001
1.40001
1.40001
1.40001
1.40001
1.40001
1.40001
1.40001
1.40001
1.40001
1.40001
1.40001
1.40001
1.40001
1.40001
1.40001
1.40001
1.40001
1.40001
1.40001
1.40001
1.40001
1.40001
1.40001
1.40001
1.40001
1.40001
1.40001
1.40001
1.40001
1.40001
1.40001
1.40001
1.40001
1.40001
1.40001
1.40001
1.40001
1.40001
1.40001
1.40001
1.40001
1.40001
1.40001
1.40001
1.40001
1.40001
1.40001
1.40001
1.40001
1.40001
1.40001
1.40001
1.40001
1.40001
1.40001
1.40001
1.40001
1.40001
1.40001
1.40001
1.40001
1.40001
1.40001
1.40001
1.40001
1.40001
1.40001
1.40001
1.40001
1.40001
1.40001
1.40001
1.40001
1.40001
1.40001
1.40001
1.40001
1.40001
1.40001
1.40001
1.40001
1.40001
1.40001
1.40001
1.40001
1.40001
1.40001
1.40001
1.40001
1.40001
1.40001
1.40001
1.40001
1.40001
1.40001
1.40001
1.40001
1.40001
1.40001
1.40001
1.40001
1.40001
1.40001
1.40001
1.40001
1.40001
1.40001
1.40001
1.40001
1.40001
1.40001
1.40001
1.40001
1.40001
1.40001
1.40001
1.40001
1.40001
1.40001
1.40001
1.40001
1.40001
1.40001
1.40001
1.40001
1.40001
1.40001
1.40001
1.40001
1.40001
1.40001
1.40001
1.40001
1.40001
1.40001
1.40001
1.40001
1.40001
1.40001
1.40001
1.40001
1.40001
1.40001
1.40001
1.40001
1.40001
1.40001
1.40001
1.40001
1.40001
1.40001
1.40001
1.40001
1.40001
1.40001
1.40001
1.40001
1.40001
1.40001
1.40001
1.40001
1.40001
1.40001
1.40001
1.40001
1.40001
1.40001
1.40001
1.40001
1.40001
1.40001
1.40001
1.40001
1.40001
1.40001
1.40001
1.40001
1.40001
1.40001
1.40001
1.40001
1.40001
1.40001
1.40001
1.40001
1.40001
1.40001
1.40001
1.40001
1.40001
1.40001
1.40001
1.40001
1.40001
1.40001
1.40001
1.40001
1.40001
1.40001
1.40001
1.40001
1.40001
1.40001
1.40001
1.40001
1.40001
1.40001
1.40001
1.40001
1.40001
1.40001
1.40001
1.40001
1.40001
1.40001
1.40001
1.40001
1.40001
1.40001
1.40001
1.40001
1.40001
1.40001
1.40001
1.40001
1.40001
1.40001
1.40001
1.40001
1.40001
1.40001
1.40001
1.40001
1.40001
1.40001
1.40001
1.40001
1.40001
1.40001
1.40001
1.40001
1.40001
1.40001
1.40001
1.40001
1.40001
1.40001
1.40001
1.40001
1.40001
1.40001
1.40001
1.40001
1.40001
1.40001
1.40001
1.40001
1.40001
1.40001
1.40001
1.40001
1.40001
1.40001
1.40001
1.40001
1.40001
1.40001
1.40001
1.40001
1.40001
1.40001
1.40001
1.40001
1.40001
1.40001
1.40001
1.40001
1.40001
1.40001
1.40001
1.40001
1.40001
1.40001
1.40001
1.40001
1.40001
1.40001
1.40001
1.40001
1.40001
1.40001
1.40001
1.40001
1.40001
1.40001
1.40001
1.40001
1.40001
1.40001
1.40001
1.40001
1.40001
1.40001
1.40001
1.40001
1.40001
1.40001
1.40001
1.40001
1.40001
1.40001
1.40001
1.40001
1.40001
1.40001
1.40001
1.40001
1.40001
1.40001
1.40001
1.40001
1.40001
1.40001
1.40001
1.40001
1.40001
1.40001
1.40001
1.40001
1.40001
1.40001
1.40001
1.40001
1.40001
1.40001
1.40001
1.40001
1.40001
1.40001
1.40001
1.40001
1.40001
1.40001
1.40001
1.40001
1.40001
1.40001
1.40001
1.40001
1.40001
1.40001
1.40001
1.40001
1.40001
1.40001
1.40001
1.40001
1.40001
1.40001
1.40001
1.40001
1.40001
1.40001
1.40001
1.40001
1.40001
1.40001
1.40001
1.40001
1.40001
1.40001
1.40001
1.40001
1.40001
1.40001
1.40001
1.40001
1.40001
1.40001
1.40001
1.40001
1.40001
1.40001
1.40001
1.40001
1.40001
1.40001
1.40001
1.40001
1.40001
1.40001
1.40001
1.40001
1.40001
1.40001
1.40001
1.40001
1.40001
1.40001
1.40001
1.40001
1.40001
1.40001
1.40001
1.40001
1.40001
1.40001
1.40001
1.40001
1.40001
1.40001
1.40001
1.40001
1.40001
1.40001
1.40001
1.40001
1.40001
1.40001
1.40001
1.40001
1.40001
1.40001
1.40001
1.40001
1.40001
1.40001
1.40001
1.40001
1.40001
1.40001
1.40001
1.40001
1.40001
1.40001
1.40001
1.40001
1.40001
1.40001
1.40001
1.40001
1.40001
1.40001
1.40001
1.40001
1.40001
1.40001
1.40001
1.40001
1.40001
1.40001
1.40001
1.40001
1.40001
1.40001
1.40001
1.40001
1.40001
1.40001
1.40001
1.40001
1.40001
1.40001
1.40001
1.40001
1.40001
1.40001
1.40001
1.40001
1.40001
1.40001
1.40001
1.40001
1.40001
1.40001
1.40001
1.40001
1.40001
1.40001
1.40001
1.40001
1.40001
1.40001
1.40001
1.40001
1.40001
1.40001
1.40001
1.40001
1.40001
1.40001
1.40001
1.40001
1.40001
1.40001
1.40001
1.40001
1.40001
1.40001
1.40001
1.40001
1.40001
1.40001
1.40001
1.40001
1.40001
1.40001
1.40001
1.40001
1.40001
1.40001
1.40001
1.40001
1.40001
1.40001
1.40001
1.40001
1.40001
1.40001
1.40001
1.40001
1.40001
1.40001
1.40001
1.40001
1.40001
1.40001
1.40001
1.40001
1.40001
1.40001
1.40001
1.40001
1.40001
1.40001
1.40001
1.40001
1.40001
1.40001
1.40001
1.40001
1.40001
1.40001
1.40001
1.40001
1.40001
1.40001
1.40001
1.40001
1.40001
1.40001
1.40001
1.40001
1.40001
1.40001
1.40001
1.40001
1.40001
1.40001
1.40001
1.40001
1.40001
1.40001
1.40001
1.40001
1.40001
1.40001
1.40001
1.40001
1.40001
1.40001
1.40001
1.40001
1.40001
1.40001
1.40001
1.40001
1.40001
1.40001
1.40001
1.40001
1.40001
1.40001
1.40001
1.40001
1.40001
1.40001
1.40001
1.40001
1.40001
1.40001
1.40001
1.40001
1.40001
1.40001
1.40001
1.40001
1.40001
1.40001
1.40001
1.40001
1.40001
1.40001
1.40001
1.40001
1.40001
1.40001
1.40001
1.40001
1.40001
1.40001
1.40001
1.40001
1.40001
1.40001
1.40001
1.40001
1.40001
1.40001
1.40001
1.40001
1.40001
1.40001
1.40001
1.40001
1.40001
1.40001
1.40001
1.40001
1.40001
1.40001
1.40001
1.40001
1.40001
1.40001
1.40001
1.40001
1.40001
1.40001
1.40001
1.40001
1.40001
1.40001
1.40001
1.40001
1.40001
1.40001
1.40001
1.40001
1.40001
1.40001
1.40001
1.40001
1.40001
1.40001
1.40001
1.40001
1.40001
1.40001
1.40001
1.40001
1.40001
1.40001
1.40001
1.40001
1.40001
1.40001
1.40001
1.40001
1.40001
1.40001
1.40001
1.40001
1.40001
1.40001
1.40001
1.40001
1.40001
1.40001
1.40001
1.40001
1.40001
1.40001
1.40001
1.40001
1.40001
1.40001
1.40001
1.40001
1.40001
1.40001
1.40001
1.40001
1.40001
1.40001
1.40001
1.40001
1.40001
1.40001
1.40001
1.40001
1.40001
1.40001
1.40001
1.40001
1.40001
1.40001
1.40001
1.40001
1.40001
1.40001
1.40001
1.40001
1.40001
1.40001
1.40001
1.40001
1.40001
1.40001
1.40001
1.40001
1.40001
1.40001
1.40001
1.40001
1.40001
1.40001
1.40001
1.40001
1.40001
1.40001
1.40001
1.40001
1.40001
1.40001
1.40001
1.40001
1.40001
1.40001
1.40001
1.40001
1.40001
1.40001
1.40001
1.40001
1.40001
1.40001
1.40001
1.40001
1.40001
1.40001
1.40001
1.40001
1.40001
1.40001
1.40001
1.40001
1.40001
1.40001
1.40001
1.40001
1.40001
1.40001
1.40001
1.40001
1.40001
1.40001
1.40001
1.40001
1.40001
1.40001
1.40001
1.40001
1.40001
1.40001
1.40001
1.40001
1.40001
1.40001
1.40001
1.40001
1.40001
1.40001
1.40001
1.40001
1.40001
1.40001
1.40001
1.40001
1.40001
1.40001
1.40001
1.40001
1.40001
1.40001
1.40001
1.40001
1.40001
1.40001
1.40001
1.40001
1.40001
1.40001
1.40001
1.40001
1.40001
1.40001
1.40001
1.40001
1.40001
1.40001
1.40001
1.40001
1.40001
1.40001
1.40001
1.40001
1.40001
1.40001
1.40001
1.40001
1.40001
1.40001
1.40001
1.40001
1.40001
1.40001
1.40001
1.40001
1.40001
1.40001
1.40001
1.40001
1.40001
1.40001
1.40001
1.40001
1.40001
1.40001
1.40001
1.40001
1.40001
1.40001
1.40001
1.40001
1.40001
1.40001
1.40001
1.40001
1.40001
1.40001
1.40001
1.40001
1.40001
1.40001
1.40001
1.40001
1.40001
1.40001
1.40001
1.40001
1.40001
1.40001
1.40001
1.40001
1.40001
1.40001
1.40001
1.40001
1.40001
1.40001
1.40001
1.40001
1.40001
1.40001
1.40001
1.40001
1.40001
1.40001
1.40001
1.40001
1.40001
1.40001
1.40001
1.40001
1.40001
1.40001
1.40001
1.40001
1.40001
1.40001
1.40001
1.40001
1.40001
1.40001
1.40001
1.40001
1.40001
1.40001
1.40001
1.40001
1.40001
1.40001
1.40001
1.40001
1.40001
1.40001
1.40001
1.40001
1.40001
1.40001
1.40001
1.40001
1.40001
1.40001
1.40001
1.40001
1.40001
1.40001
1.40001
1.40001
1.40001
1.40001
1.40001
1.40001
1.40001
1.40001
1.40001
1.40001
1.40001
1.40001
1.40001
1.40001
1.40001
1.40001
1.40001
1.40001
1.40001
1.40001
1.40001
1.40001
1.40001
1.40001
1.40001
1.40001
1.40001
1.40001
1.40001
1.40001
1.40001
1.40001
1.40001
1.40001
1.40001
1.40001
1.40001
1.40001
1.40001
1.40001
1.40001
1.40001
1.40001
1.40001
1.40001
1.40001
1.40001
1.40001
1.40001
1.40001
1.40001
1.40001
1.40001
1.40001
1.40001
1.40001
1.40001
1.40001
1.40001
1.40001
1.40001
1.40001
1.40001
1.40001
1.40001
1.40001
1.40001
1.40001
1.40001
1.40001
1.40001
1.40001
1.40001
1.40001
1.40001
1.40001
1.40001
1.40001
1.40001
1.40001
1.40001
1.40001
1.40001
1.40001
1.40001
1.40001
1.40001
1.40001
1.40001
1.40001
1.40001
1.40001
1.40001
1.40001
1.40001
1.40001
1.40001
1.40001
1.40001
1.40001
1.40001
1.40001
1.40001
1.40001
1.40001
1.40001
1.40001
1.40001
1.40001
1.40001
1.40001
1.40001
1.40001
1.40001
1.40001
1.40001
1.40001
1.40001
1.40001
1.40001
1.40001
1.40001
1.40001
1.40001
1.40001
1.40001
1.40001
1.40001
1.40001
1.40001
1.40001
1.40001
1.40001
1.40001
1.40001
1.40001
1.40001
1.40001
1.40001
1.40001
1.40001
1.40001
1.40001
1.40001
1.40001
1.40001
1.40001
1.40001
1.40001
1.40001
1.40001
1.40001
1.40001
1.40001
1.40001
1.40001
1.40001
1.40001
1.40001
1.40001
1.40001
1.40001
1.40001
1.40001
1.40001
1.40001
1.40001
1.40001
1.40001
1.40001
1.40001
1.40001
1.40001
1.40001
1.40001
1.40001
1.40001
1.40001
1.40001
1.40001
1.40001
1.40001
1.40001
1.40001
1.40001
1.40001
1.40001
1.40001
1.40001
1.40001
1.65623
2.02031
2.42833
2.86192
3.17146
3.48984
3.84546
4.10559
4.23261
4.35373
4.46541
4.45468
4.35514
4.16033
3.92205
3.6469
3.48011
3.4508
3.42506
3.36918
3.34818
3.35428
3.38268
3.41954
3.45842
3.46512
3.46344
3.46443
3.47158
3.47926
3.48033
3.47998
3.48588
3.50198
3.51273
3.51471
3.51347
3.50799
3.50046
3.49452
3.48907
3.48413
3.47935
3.47417
3.47105
3.47189
3.47778
3.48866
3.49954
3.50558
3.50736
3.50726
3.50616
3.50274
3.49888
3.49755
3.49655
3.49459
3.49295
3.49145
3.48894
3.48484
3.48101
3.48004
3.48099
3.48463
3.49163
3.502
3.5081
3.50881
3.50823
3.50622
3.50155
3.4983
3.49834
3.49925
3.50107
3.50214
3.50205
3.49739
1.39967
1.40683
1.41927
1.46801
1.60307
1.73732
1.94288
2.21716
2.54065
2.81831
3.11779
3.40725
3.52909
3.59875
3.67227
3.69802
3.66926
3.62646
3.61602
3.5852
3.52881
3.47393
3.46427
3.45091
3.43341
3.4272
3.4288
3.43442
3.44924
3.46189
3.46798
3.46742
3.46874
3.47425
3.47913
3.48366
3.48777
3.49001
3.49127
3.49173
3.4925
3.49226
3.49044
3.48616
3.48101
3.47928
3.48126
3.48396
3.48573
3.48563
3.48474
3.48512
3.48587
3.48682
3.48855
3.49035
3.49253
3.4961
3.498
3.49849
3.49808
3.49523
3.49102
3.48812
3.4884
3.49018
3.49301
3.49538
3.4968
3.49651
3.49519
3.49182
3.48925
3.48899
3.48951
3.49226
3.49701
3.49903
3.49897
3.49444
1.40001
1.40001
1.4
1.40001
1.40001
1.39975
1.40256
1.41802
1.4719
1.59235
1.80011
2.15041
2.62303
3.14134
3.49291
3.65314
3.80405
3.8084
3.78099
3.73497
3.66226
3.57819
3.45045
3.41997
3.40303
3.39932
3.40168
3.42081
3.44053
3.44996
3.44982
3.44723
3.44132
3.43637
3.4393
3.44585
3.45081
3.45743
3.46848
3.47807
3.48201
3.483
3.48184
3.47917
3.47793
3.47732
3.47748
3.47695
3.47405
3.47046
3.46703
3.46295
3.46035
3.46095
3.46315
3.46759
3.47544
3.48527
3.4915
3.49324
3.49335
3.4926
3.49054
3.48889
3.48924
3.49073
3.49192
3.49122
3.48902
3.4874
3.4854
3.4818
3.4789
3.47823
3.47839
3.48083
3.48629
3.48863
3.48851
3.48465
1.40001
1.40001
1.40001
1.40001
1.40001
1.40001
1.40001
1.4
1.40001
1.39977
1.40037
1.41078
1.48532
1.6668
2.07392
2.55119
3.04852
3.3812
3.46695
3.55425
3.5297
3.49905
3.51107
3.51487
3.5026
3.4695
3.43597
3.43317
3.42182
3.41513
3.40413
3.3976
3.39774
3.40126
3.40911
3.41783
3.4223
3.42399
3.42941
3.438
3.44548
3.451
3.45576
3.46051
3.46402
3.46459
3.46388
3.46317
3.46195
3.45987
3.45522
3.44797
3.44315
3.4434
3.44459
3.44633
3.45037
3.45784
3.46624
3.47216
3.47608
3.47887
3.48032
3.48057
3.48122
3.48241
3.48252
3.48131
3.47949
3.47724
3.47472
3.47213
3.47002
3.46966
3.47091
3.47438
3.47803
3.4789
3.47864
3.47444
1.40001
1.40001
1.40001
1.40001
1.40001
1.40001
1.40001
1.40001
1.40001
1.40001
1.4
1.4
1.40001
1.39998
1.41147
1.49589
1.67626
2.08694
2.55747
3.03153
3.33579
3.47448
3.59214
3.58384
3.56231
3.5307
3.48578
3.40477
3.36971
3.38191
3.38525
3.37835
3.37959
3.38549
3.39043
3.39498
3.40416
3.40449
3.40586
3.41046
3.41524
3.41826
3.42143
3.4255
3.43001
3.4347
3.44058
3.44597
3.44745
3.44692
3.44575
3.44343
3.43875
3.43531
3.4354
3.43609
3.43805
3.44142
3.44478
3.44675
3.44796
3.44931
3.45109
3.45323
3.45606
3.45963
3.462
3.463
3.4634
3.46316
3.46292
3.46306
3.46282
3.46346
3.46552
3.46883
3.47079
3.47099
3.47075
3.46596
1.40001
1.40001
1.40001
1.40001
1.40001
1.40001
1.40001
1.40001
1.40001
1.40001
1.40001
1.40001
1.4
1.4
1.40001
1.39995
1.40023
1.41562
1.50673
1.68707
2.10783
2.55686
3.05725
3.2828
3.35597
3.41465
3.39013
3.39202
3.40692
3.43094
3.43235
3.41635
3.40849
3.40715
3.4027
3.39911
3.39515
3.39024
3.39044
3.39988
3.40546
3.4059
3.40474
3.40353
3.40305
3.40565
3.41331
3.42409
3.43371
3.43813
3.43931
3.43915
3.43633
3.43551
3.43645
3.43732
3.4375
3.43644
3.43513
3.43324
3.43074
3.42937
3.42895
3.42965
3.43208
3.4354
3.43825
3.44077
3.44314
3.44572
3.44923
3.45283
3.45476
3.45624
3.45911
3.46191
3.46283
3.46312
3.46307
3.45774
1.40001
1.40001
1.40001
1.40001
1.40001
1.40001
1.40001
1.40001
1.40001
1.40001
1.40001
1.40001
1.40001
1.40001
1.40001
1.4
1.4
1.40001
1.39998
1.40064
1.42072
1.51755
1.73002
2.16821
2.61483
3.10422
3.29783
3.40879
3.48913
3.4776
3.46877
3.44971
3.42116
3.38673
3.38445
3.39485
3.39997
3.40593
3.41074
3.40706
3.39979
3.39486
3.39087
3.39041
3.39201
3.39568
3.40142
3.4062
3.41241
3.42059
3.42591
3.42885
3.43108
3.43299
3.4349
3.436
3.43505
3.43208
3.42866
3.42588
3.42307
3.42149
3.42084
3.42172
3.42463
3.427
3.42822
3.42958
3.43129
3.43353
3.43697
3.44123
3.4443
3.4463
3.44873
3.45095
3.45172
3.4521
3.45246
3.44743
1.40001
1.40001
1.40001
1.40001
1.40001
1.40001
1.40001
1.40001
1.40001
1.40001
1.40001
1.40001
1.40001
1.40001
1.40001
1.40001
1.40001
1.4
1.4
1.4
1.40002
1.40004
1.4015
1.43416
1.54542
1.78441
2.25043
2.68879
3.15497
3.25274
3.3417
3.36519
3.34711
3.36197
3.39738
3.41661
3.42505
3.42924
3.42947
3.42534
3.42313
3.4206
3.41553
3.41142
3.41058
3.40995
3.41162
3.41183
3.41031
3.409
3.40857
3.40991
3.41299
3.41829
3.42393
3.42733
3.42879
3.43013
3.43134
3.43178
3.43151
3.43075
3.42948
3.42919
3.43051
3.43066
3.43004
3.42966
3.42936
3.42954
3.43122
3.43423
3.43669
3.43808
3.43895
3.43902
3.43818
3.43743
3.43732
3.43404
1.40001
1.40001
1.40001
1.40001
1.40001
1.40001
1.40001
1.40001
1.40001
1.40001
1.40001
1.40001
1.40001
1.40001
1.40001
1.40001
1.40001
1.40001
1.40001
1.4
1.4
1.4
1.4
1.4
1.40019
1.40329
1.45176
1.58078
1.87978
2.34277
2.79579
3.22953
3.31657
3.3998
3.43636
3.43116
3.41642
3.40766
3.41178
3.42484
3.42923
3.42714
3.4266
3.43245
3.44493
3.45437
3.45407
3.44728
3.43245
3.416
3.40802
3.40585
3.40634
3.40999
3.4132
3.41402
3.41481
3.41811
3.42283
3.42838
3.43383
3.43655
3.43755
3.439
3.44069
3.44086
3.43846
3.43276
3.42817
3.42642
3.42741
3.42926
3.43007
3.43007
3.42974
3.42857
3.42698
3.42614
3.42554
3.42326
1.40001
1.40001
1.40001
1.40001
1.40001
1.40001
1.40001
1.40001
1.40001
1.40001
1.40001
1.40001
1.40001
1.40001
1.40001
1.40001
1.40001
1.40001
1.40001
1.40001
1.40001
1.40001
1.40001
1.4
1.4
1.40001
1.40001
1.4005
1.40799
1.48151
1.63696
2.02145
2.50681
2.97799
3.26865
3.3056
3.35895
3.38226
3.36605
3.37618
3.38869
3.40575
3.42394
3.4392
3.45343
3.46119
3.46361
3.46336
3.45868
3.45111
3.44132
3.43184
3.42718
3.42396
3.42043
3.41831
3.41749
3.41762
3.41878
3.42073
3.42444
3.43005
3.4343
3.43882
3.44228
3.44245
3.44049
3.43751
3.4349
3.43245
3.42898
3.42815
3.42862
3.42924
3.42915
3.42875
3.42768
3.42523
3.42344
3.41926
1.40001
1.40001
1.40001
1.40001
1.40001
1.40001
1.40001
1.40001
1.40001
1.40001
1.40001
1.40001
1.40001
1.40001
1.40001
1.40001
1.40001
1.40001
1.40001
1.40001
1.40001
1.40001
1.40001
1.40001
1.40001
1.40001
1.4
1.4
1.39999
1.4001
1.40136
1.42207
1.53702
1.76635
2.20412
2.65857
3.14691
3.35166
3.37196
3.3997
3.38564
3.37534
3.39
3.40021
3.4138
3.43278
3.44629
3.45363
3.45518
3.45426
3.45653
3.46158
3.46397
3.46248
3.45736
3.44834
3.43612
3.42748
3.42512
3.42537
3.4266
3.4279
3.42955
3.43166
3.43544
3.43837
3.43833
3.4368
3.43557
3.43441
3.43366
3.43349
3.43461
3.43653
3.43726
3.43727
3.43558
3.43027
3.42547
3.42021
1.40001
1.40001
1.40001
1.40001
1.40001
1.40001
1.40001
1.40001
1.40001
1.40001
1.40001
1.40001
1.40001
1.40001
1.40001
1.40001
1.40001
1.40001
1.40001
1.40001
1.40001
1.40001
1.40001
1.40001
1.40001
1.40001
1.40001
1.4
1.4
1.4
1.40001
1.39999
1.40048
1.40467
1.45679
1.60934
1.95496
2.4492
2.91685
3.28475
3.37358
3.38862
3.42269
3.41116
3.405
3.4059
3.40689
3.41082
3.41709
3.42654
3.44186
3.46268
3.47643
3.48028
3.4795
3.47521
3.46986
3.46435
3.45854
3.45227
3.44396
3.43698
3.43394
3.43435
3.43668
3.43792
3.4376
3.43583
3.43484
3.43456
3.43536
3.43704
3.43873
3.44064
3.44285
3.44469
3.44542
3.44377
3.43761
3.42481
1.40001
1.40001
1.40001
1.40001
1.40001
1.40001
1.40001
1.40001
1.40001
1.40001
1.40001
1.40001
1.40001
1.40001
1.40001
1.40001
1.40001
1.40001
1.40001
1.40001
1.40001
1.40001
1.40001
1.40001
1.40001
1.40001
1.40001
1.40001
1.40001
1.40001
1.40001
1.4
1.4
1.4
1.40008
1.40152
1.417
1.53645
1.78458
2.242
2.70626
3.14223
3.39024
3.43033
3.44878
3.4557
3.43247
3.41503
3.4077
3.40562
3.4132
3.42782
3.44418
3.45829
3.46662
3.47297
3.47694
3.47857
3.47849
3.47587
3.47136
3.46386
3.45617
3.45012
3.44651
3.44455
3.44266
3.44013
3.43839
3.43813
3.43847
3.43853
3.43911
3.44061
3.44393
3.44928
3.45175
3.45105
3.44692
3.434
1.40001
1.40001
1.40001
1.40001
1.40001
1.40001
1.40001
1.40001
1.40001
1.40001
1.40001
1.40001
1.40001
1.40001
1.40001
1.40001
1.40001
1.40001
1.40001
1.40001
1.40001
1.40001
1.40001
1.40001
1.40001
1.40001
1.40001
1.40001
1.40001
1.40001
1.40001
1.40001
1.40001
1.4
1.4
1.40001
1.39999
1.40076
1.40707
1.46917
1.67161
2.05006
2.56371
3.00673
3.31899
3.43325
3.45743
3.47792
3.47267
3.44914
3.43486
3.43188
3.43073
3.4351
3.44105
3.44489
3.44962
3.4578
3.46853
3.477
3.47743
3.47147
3.46918
3.4691
3.46773
3.46587
3.46355
3.45988
3.45567
3.45164
3.44797
3.4454
3.44399
3.44416
3.44642
3.4481
3.44981
3.4512
3.45002
3.44014
1.40001
1.40001
1.40001
1.40001
1.40001
1.40001
1.40001
1.40001
1.40001
1.40001
1.40001
1.40001
1.40001
1.40001
1.40001
1.40001
1.40001
1.40001
1.40001
1.40001
1.40001
1.40001
1.40001
1.40001
1.40001
1.40001
1.40001
1.40001
1.40001
1.40001
1.40001
1.40001
1.40001
1.40001
1.4
1.40001
1.4
1.4
1.4
1.4002
1.40361
1.43152
1.60888
1.94895
2.43566
2.88313
3.24335
3.41363
3.47005
3.48052
3.50351
3.50177
3.48585
3.46548
3.44999
3.4412
3.43919
3.44219
3.44828
3.45474
3.46252
3.46943
3.47305
3.4754
3.47601
3.4757
3.4746
3.47163
3.47026
3.47051
3.46972
3.46705
3.46171
3.45478
3.45075
3.45058
3.45074
3.44999
3.45016
3.44297
1.40001
1.40001
1.40001
1.40001
1.40001
1.40001
1.40001
1.40001
1.40001
1.40001
1.40001
1.40001
1.40001
1.40001
1.40001
1.40001
1.40001
1.40001
1.40001
1.40001
1.40001
1.40001
1.40001
1.40001
1.40001
1.40001
1.40001
1.40001
1.40001
1.40001
1.40001
1.40001
1.40001
1.40001
1.40001
1.40001
1.40001
1.40001
1.4
1.4
1.4
1.40003
1.40256
1.41998
1.54594
1.87307
2.357
2.80878
3.17952
3.36611
3.46596
3.5037
3.51224
3.51357
3.51049
3.49569
3.47378
3.46105
3.45691
3.4565
3.45823
3.46195
3.4648
3.46677
3.46741
3.46523
3.46504
3.46661
3.47054
3.47563
3.47921
3.47961
3.47883
3.47446
3.46654
3.45858
3.45322
3.45126
3.45096
3.44464
1.40001
1.40001
1.40001
1.40001
1.40001
1.40001
1.40001
1.40001
1.40001
1.40001
1.40001
1.40001
1.40001
1.40001
1.40001
1.40001
1.40001
1.40001
1.40001
1.40001
1.40001
1.40001
1.40001
1.40001
1.40001
1.40001
1.40001
1.40001
1.40001
1.40001
1.40001
1.40001
1.40001
1.40001
1.40001
1.40001
1.40001
1.40001
1.40001
1.4
1.4
1.4
1.40001
1.40001
1.4015
1.41556
1.50258
1.83092
2.36348
2.80728
3.13148
3.34263
3.45076
3.49612
3.51173
3.51288
3.50478
3.50149
3.50145
3.49674
3.48706
3.48045
3.47653
3.47316
3.47035
3.46577
3.45911
3.45756
3.45835
3.46375
3.47365
3.47979
3.48126
3.48087
3.47859
3.47352
3.46511
3.45766
3.45327
3.44654
1.40001
1.40001
1.40001
1.40001
1.40001
1.40001
1.40001
1.40001
1.40001
1.40001
1.40001
1.40001
1.40001
1.40001
1.40001
1.40001
1.40001
1.40001
1.40001
1.40001
1.40001
1.40001
1.40001
1.40001
1.40001
1.40001
1.40001
1.40001
1.40001
1.40001
1.40001
1.40001
1.40001
1.40001
1.40001
1.40001
1.40001
1.40001
1.40001
1.40001
1.40001
1.4
1.4
1.4
1.40001
1.40001
1.40085
1.41634
1.49741
1.81675
2.34532
2.86984
3.14855
3.30925
3.41593
3.45337
3.46601
3.48754
3.50825
3.51372
3.5123
3.50716
3.50253
3.50068
3.49866
3.49055
3.47436
3.46112
3.4583
3.46078
3.46558
3.46841
3.47199
3.47802
3.48034
3.47891
3.47414
3.46808
3.46038
3.44908
1.40001
1.40001
1.40001
1.40001
1.40001
1.40001
1.40001
1.40001
1.40001
1.40001
1.40001
1.40001
1.40001
1.40001
1.40001
1.40001
1.40001
1.40001
1.40001
1.40001
1.40001
1.40001
1.40001
1.40001
1.40001
1.40001
1.40001
1.40001
1.40001
1.40001
1.40001
1.40001
1.40001
1.40001
1.40001
1.40001
1.40001
1.40001
1.40001
1.40001
1.40001
1.40001
1.40001
1.40001
1.4
1.4
1.4
1.40002
1.40073
1.41774
1.50104
1.80773
2.37308
2.98048
3.22403
3.32316
3.36808
3.39742
3.43695
3.47433
3.48669
3.48773
3.49409
3.50239
3.50823
3.50842
3.5031
3.49359
3.48232
3.47282
3.46849
3.46886
3.47067
3.47366
3.47714
3.47847
3.47819
3.47688
3.47188
3.45512
1.40001
1.40001
1.40001
1.40001
1.40001
1.40001
1.40001
1.40001
1.40001
1.40001
1.40001
1.40001
1.40001
1.40001
1.40001
1.40001
1.40001
1.40001
1.40001
1.40001
1.40001
1.40001
1.40001
1.40001
1.40001
1.40001
1.40001
1.40001
1.40001
1.40001
1.40001
1.40001
1.40001
1.40001
1.40001
1.40001
1.40001
1.40001
1.40001
1.40001
1.40001
1.40001
1.40001
1.40001
1.40001
1.4
1.4
1.4
1.4
1.40003
1.40082
1.41845
1.52405
1.87826
2.43906
3.08176
3.3502
3.36162
3.40142
3.4414
3.45166
3.44108
3.43726
3.44547
3.46134
3.4842
3.49634
3.49897
3.49907
3.49431
3.48527
3.47802
3.47594
3.47533
3.47677
3.48025
3.48392
3.48587
3.48487
3.46819
1.40001
1.40001
1.40001
1.40001
1.40001
1.40001
1.40001
1.40001
1.40001
1.40001
1.40001
1.40001
1.40001
1.40001
1.40001
1.40001
1.40001
1.40001
1.40001
1.40001
1.40001
1.40001
1.40001
1.40001
1.40001
1.40001
1.40001
1.40001
1.40001
1.40001
1.40001
1.40001
1.40001
1.40001
1.40001
1.40001
1.40001
1.40001
1.40001
1.40001
1.40001
1.40001
1.40001
1.40001
1.40001
1.40001
1.40001
1.40001
1.4
1.4
1.4
1.40004
1.4014
1.42673
1.57078
1.98976
2.61938
3.08699
3.40613
3.50529
3.50982
3.48005
3.43762
3.42249
3.41901
3.42999
3.45546
3.47692
3.49088
3.49729
3.49444
3.4882
3.48501
3.48219
3.48191
3.48432
3.4874
3.49015
3.49329
3.48417
1.40001
1.40001
1.40001
1.40001
1.40001
1.40001
1.40001
1.40001
1.40001
1.40001
1.40001
1.40001
1.40001
1.40001
1.40001
1.40001
1.40001
1.40001
1.40001
1.40001
1.40001
1.40001
1.40001
1.40001
1.40001
1.40001
1.40001
1.40001
1.40001
1.40001
1.40001
1.40001
1.40001
1.40001
1.40001
1.40001
1.40001
1.40001
1.40001
1.40001
1.40001
1.40001
1.40001
1.40001
1.40001
1.40001
1.40001
1.40001
1.40001
1.40001
1.4
1.4
1.4
1.4001
1.40294
1.44032
1.67627
2.16115
2.74646
3.21852
3.4621
3.50134
3.51042
3.50569
3.47275
3.45227
3.4539
3.46365
3.47509
3.47944
3.48241
3.48542
3.48518
3.48527
3.4839
3.47858
3.4765
3.47941
3.48876
3.4899
1.40001
1.40001
1.40001
1.40001
1.40001
1.40001
1.40001
1.40001
1.40001
1.40001
1.40001
1.40001
1.40001
1.40001
1.40001
1.40001
1.40001
1.40001
1.40001
1.40001
1.40001
1.40001
1.40001
1.40001
1.40001
1.40001
1.40001
1.40001
1.40001
1.40001
1.40001
1.40001
1.40001
1.40001
1.40001
1.40001
1.40001
1.40001
1.40001
1.40001
1.40001
1.40001
1.40001
1.40001
1.40001
1.40001
1.40001
1.40001
1.40001
1.40001
1.40001
1.40001
1.4
1.4
1.4
1.40026
1.4075
1.48693
1.79076
2.34972
2.93044
3.28499
3.45682
3.50327
3.50701
3.49833
3.48869
3.48489
3.47837
3.47518
3.47526
3.48158
3.48662
3.48728
3.48519
3.4762
3.4637
3.45911
3.46215
3.47581
1.40001
1.40001
1.40001
1.40001
1.40001
1.40001
1.40001
1.40001
1.40001
1.40001
1.40001
1.40001
1.40001
1.40001
1.40001
1.40001
1.40001
1.40001
1.40001
1.40001
1.40001
1.40001
1.40001
1.40001
1.40001
1.40001
1.40001
1.40001
1.40001
1.40001
1.40001
1.40001
1.40001
1.40001
1.40001
1.40001
1.40001
1.40001
1.40001
1.40001
1.40001
1.40001
1.40001
1.40001
1.40001
1.40001
1.40001
1.40001
1.40001
1.40001
1.40001
1.40001
1.40001
1.4
1.4
1.4
1.40001
1.4012
1.41516
1.55
2.03756
2.66922
3.06745
3.36575
3.47804
3.48132
3.48054
3.49281
3.49642
3.49107
3.48596
3.48696
3.49313
3.50231
3.50484
3.49716
3.47287
3.45084
3.44416
3.44536
1.40001
1.40001
1.40001
1.40001
1.40001
1.40001
1.40001
1.40001
1.40001
1.40001
1.40001
1.40001
1.40001
1.40001
1.40001
1.40001
1.40001
1.40001
1.40001
1.40001
1.40001
1.40001
1.40001
1.40001
1.40001
1.40001
1.40001
1.40001
1.40001
1.40001
1.40001
1.40001
1.40001
1.40001
1.40001
1.40001
1.40001
1.40001
1.40001
1.40001
1.40001
1.40001
1.40001
1.40001
1.40001
1.40001
1.40001
1.40001
1.40001
1.40001
1.40001
1.40001
1.40001
1.40001
1.40001
1.4
1.4
1.4
1.40005
1.40416
1.45157
1.74094
2.31338
3.00241
3.25521
3.34696
3.39323
3.45579
3.47831
3.47359
3.46229
3.46012
3.47331
3.50072
3.51984
3.52203
3.51425
3.48518
3.44855
3.43934
1.40001
1.40001
1.40001
1.40001
1.40001
1.40001
1.40001
1.40001
1.40001
1.40001
1.40001
1.40001
1.40001
1.40001
1.40001
1.40001
1.40001
1.40001
1.40001
1.40001
1.40001
1.40001
1.40001
1.40001
1.40001
1.40001
1.40001
1.40001
1.40001
1.40001
1.40001
1.40001
1.40001
1.40001
1.40001
1.40001
1.40001
1.40001
1.40001
1.40001
1.40001
1.40001
1.40001
1.40001
1.40001
1.40001
1.40001
1.40001
1.40001
1.40001
1.40001
1.40001
1.40001
1.40001
1.40001
1.40001
1.40001
1.4
1.4
1.40001
1.40051
1.41885
1.53425
1.96604
2.67921
3.21347
3.39492
3.4536
3.4671
3.46199
3.44721
3.42433
3.42115
3.43678
3.47748
3.5204
3.53194
3.52937
3.50699
3.45581
1.40001
1.40001
1.40001
1.40001
1.40001
1.40001
1.40001
1.40001