/*--------------------------------*- C++ -*----------------------------------*\
| =========                 |                                                 |
| \\      /  F ield         | OpenFOAM: The Open Source CFD Toolbox           |
|  \\    /   O peration     | Version:  2206                                  |
|   \\  /    A nd           | Website:  www.openfoam.com                      |
|    \\/     M anipulation  |                                                 |
\*---------------------------------------------------------------------------*/
FoamFile
{
    version     2.0;
    format      ascii;
    arch        "LSB;label=32;scalar=64";
    class       volVectorField;
    location    "0.08";
    object      U;
}
// * * * * * * * * * * * * * * * * * * * * * * * * * * * * * * * * * * * * * //

dimensions      [0 1 -1 0 0 0 0];

internalField   nonuniform List<vector> 
75
(
(6.27273 -3.47352e-15 0)
(6.27273 -3.45851e-15 0)
(6.27273 4.9321e-15 0)
(6.27273 2.07948e-14 0)
(6.27273 1.14559e-13 0)
(6.27273 -1.00017e-17 0)
(6.27273 -3.21014e-15 0)
(6.27273 -2.78215e-15 0)
(6.27273 -2.95801e-15 0)
(6.27273 3.64026e-14 0)
(6.27273 3.02802e-15 0)
(6.27273 2.72922e-15 0)
(6.27273 -5.28758e-15 0)
(6.27273 -2.94497e-14 0)
(6.27273 -1.81561e-13 0)
(6.27273 -3.16971e-15 0)
(6.27273 -6.73033e-16 0)
(6.27273 1.52693e-15 0)
(6.27273 1.81427e-14 0)
(6.27273 2.98311e-14 0)
(6.27273 -3.5952e-15 0)
(6.27273 -3.54395e-15 0)
(6.27273 -1.2673e-15 0)
(6.27273 1.11665e-14 0)
(6.27273 7.52651e-14 0)
(6.24833 0.000180415 0)
(6.2056 0.063567 0)
(6.16138 0.0899537 0)
(6.10198 0.242283 0)
(6.06008 0.280449 0)
(5.9786 0.50663 0)
(5.95025 0.541247 0)
(5.83921 0.818182 0)
(5.85132 0.847777 0)
(5.68493 1.13461 0)
(6.27273 4.41833e-06 0)
(6.27273 1.21203e-05 0)
(6.28112 -0.0172215 0)
(6.26501 0.0258739 0)
(6.26216 0.0142328 0)
(6.18542 0.203142 0)
(6.15181 0.327102 0)
(5.96368 0.787222 0)
(5.94179 1.01638 0)
(5.61771 1.70843 0)
(6.27273 -1.26725e-09 0)
(6.27273 1.25709e-07 0)
(6.27273 -7.06401e-06 0)
(6.27273 -6.71664e-06 0)
(6.27282 -0.000246304 0)
(6.27268 0.000119808 0)
(6.2757 -0.00873483 0)
(6.26878 0.0196415 0)
(6.2658 0.0218065 0)
(6.09882 0.589568 0)
(6.27273 2.16095e-13 0)
(6.27273 3.28009e-09 0)
(6.27273 1.4057e-07 0)
(6.27273 -2.86223e-07 0)
(6.27273 -2.18484e-05 0)
(6.27273 -2.14714e-05 0)
(6.27286 -0.000435578 0)
(6.27279 -0.000390184 0)
(6.27288 -0.000429827 0)
(6.25959 0.0637705 0)
(6.27273 1.57984e-13 0)
(6.27273 6.08565e-12 0)
(6.27273 1.28385e-08 0)
(6.27273 8.85213e-09 0)
(6.27273 9.32814e-08 0)
(6.27273 -2.82774e-06 0)
(6.27273 -9.68954e-07 0)
(6.27274 -5.55649e-05 0)
(6.27279 -0.000138046 0)
(6.27253 0.000958268 0)
)
;

boundaryField
{
    inlet
    {
        type            fixedValue;
        value           uniform (6.27273 0 0);
    }
    outlet
    {
        type            zeroGradient;
    }
    bottom
    {
        type            symmetryPlane;
    }
    top
    {
        type            symmetryPlane;
    }
    obstacle
    {
        type            slip;
    }
    defaultFaces
    {
        type            empty;
    }
}


// ************************************************************************* //
