/*--------------------------------*- C++ -*----------------------------------*\
| =========                 |                                                 |
| \\      /  F ield         | OpenFOAM: The Open Source CFD Toolbox           |
|  \\    /   O peration     | Version:  2206                                  |
|   \\  /    A nd           | Website:  www.openfoam.com                      |
|    \\/     M anipulation  |                                                 |
\*---------------------------------------------------------------------------*/
FoamFile
{
    version     2.0;
    format      ascii;
    arch        "LSB;label=32;scalar=64";
    class       volScalarField;
    location    "0.16";
    object      T;
}
// * * * * * * * * * * * * * * * * * * * * * * * * * * * * * * * * * * * * * //

dimensions      [0 0 0 1 0 0 0];

internalField   nonuniform List<scalar> 
4800
(
1
1
1
1
1
1
1
1
1
1
1
1
1
1
1
1
1
1
1
1
1
1
1
1
1
1
1
1
1
1
1
1
1
1
1
1
1
1
1
1
1
1
1
1
1
1
1
1
1
1
1
1
1
1
1
1
1
1
1
1
1
1
1
1
1
1
1
1
1
1
1
1
1
1
1
1
1
1
1
1
1
1
1
1
1
1
1
1
1
1
1
1
1
1
1
1
1
1
1
1
1
1
1
1
1
1
1
1
1
1
1
1
1
1
1
1
1
1
1
1
1
1
1
1
1
1
1
1
1
1
1
1
1
1
1
1
1
1
1
1
1
1
1
1
1
1
1
1
1
1
1
1
1
1
1
1
1
1
1
1
1
1
1
1
1
1
1
1
1
1
1
1
1
1
1
1
1
1
1
1
1
1
1
1
1
1
1
1
1
1
1
1
1
1
1
1
1
1
1
1
1
1
1
1
1
1
1
1
1
1
1
1
1
1
1
1
1
1
1
1
1
1
1
1
1
1
1
1
1
1
1
1
1
1
1
1
1
1
1
1
1
1
1
1
1
1
1
1
1
1
1
1
1
1
1
1
1
1
1
1
1
1
1
1
1
1
1
1
1
1
1
1
1
1
1
1
1
1
1
1
1
1
1
1
1
1
1
1
1
1
1
1
1
1
1
1
1
1
1
1
1
1
1
1
1
1
1
1
1
1
1
1
1
1
1
1
1
1
1
1
1
1
1
1
1
1
1
1
1
1
1
1
1
1
1
1
1
1
1
1
1
1
1
1
1
1
1
1
1
1
1
1
1
1
1
1
1
1
1
1
1
1
1
1
1
1
1
1
1
1
1
1
1
1
1
1
1
1
1
1
1
1
1
1
1
1
1
1
1
1
1
1
1
1
1
1
1
1
1
1
1
1
1
1
1
1
1
1
1
1
1
1
1
1
1
1
1
1
1
1
1
1
1
1
1
1
1
1
1
1
1
1
1
1
1
1
1
1
1
1
1
1
1
1
1
1
1
1
1
1
1
1
1
1
1
1
1
1
1
1
1
1
1
1
1
1
1
1
1
1
1
1
1
1
1
1
1
1
1
1
1
1
1
1
1
1
1
1
1
1
1
1
1
1
1
1
1
1
1
1
1
1
1
1
1
1
1
1
1
1
1
1
1
1
1
1
1
1
1
1
1
1
1
1
1
1
1
1
1
1
1
1
1
1
1
1
1
1
1
1
1
1
1
1
1
1
1
1
1
1
1
1
1
1
1
1
1
1
1
1
1
1
1
1
1
1
1
1
1
1
1
1
1
1
1
1
1
1
1
1
1
1
1
1
1
1
1
1
1
1
1
1
1
1
1
1
1
1
1
1
1
1
1
1
1
1
1
1
1
1
1
1
1
1
1
1
1
1
1
1
1
1
1
1
1
1
1
1
1
1
1
1
1
1
1
1
1
1
1
1
1
1
1
1
1
1
1
1
1
1
1
1
1
1
1
1
1
1
1
1
1
1
1
1
1
1
1
1
1
1
1
1
1
1
1
1
1
1
1
1
1
1
1
1
1
1
1
1
1
1
1
1
1
1
1
1
1
1
1
1
1
1
1
1
1
1
1
1
1
1
1
1
1
1
1
1
1
1
1
1
1
1
1
1
1
1
1
1
1
1
1
1
1
1
1
1
1
1
1
1
1
1
1
1
1
1
1
1
1
1
1
1
1
1
1
1
1
1
1
1
1
1
1
1
1
1
1
1
1
1
1
1
1
1
1
1
1
1
1
1
1
1
1
1
1
1
1
1
1
1
1
1
1
1
1
1
1
1
1
1
1
1
1
1
1
1
1
1
1
1
1
1
1
1
1
1
1
1
1
1
1
1
1
1
1
1
1
1
1
1
1
1
1
1
1
1
1
1
1
1
1
1
1
1
1
1
1
1
1
1
1
1
1
1
1
1
1
1
1
1
1
1
1
1
1
1
1
1
1
1
1
1
1
1
1
1
1
1
1
1
1
1
1
1
1
1
1
1
1
1
1
1
1
1
1
1
1
1
1
1
1
1
1
1
1
1
1
1
1
1
1
1
1
1
1
1
1
1
1
1
1
1
1
1
1
1
1
1
1
1
1
1
1
1
1
1
1
1
1
1
1
1
1
1
1
1
1
1
1
1
1
1
1
1
1
1
1
1
1
1
1
1
1
1
1
1
1
1
1
1
1
1
1
1
1
1
1
1
1
1
1
1
1
1
1
1
1
1
1
1
1
1
1
1
1
1
1
1
1
1
1
1
1
1
1
1
1
1
1
1
1
1
1
1
1
1
1
1
1
1
1
1
1
1
1
1
1
1
1
1
1
1
1
1
1
1
1
1
1
1
1
1
1
1
1
1
1
1
1
1
1
1
1
1
1
1
1
1
1
1
1
1
1
1
1
1
1
1
1
1
1
1
1
1
1
1
1
1
1
1
1
1
1
1
1
1
1
1
1
1
1
1
1
1
1
1
1
1
1
1
1
1
1
1
1
1
1
1
1
1
1
1
1
1
1
1
1
1
1
1
1
1
1
1
1
1
1
1
1
1
1
1
1
1
1
1
1
1
1
1
1
1
1
1
1
1
1
1
1
1
1
1
1
1
1
1
1
1
1
1
1
1
1
1
1
1
1
1
1
1
1
1
1
1
1
1
1
1
1
1
1
1
1
1
1
1
1
1
1
1
1
1
1
1
1
1
1
1
1
1
1
1
1
1
1
1
1
1
1
1
1
1
1
1
1
1
1
1
1
1
1
1
1
1
1
1
1
1
1
1
1
1
1
1
1
1
1
1
1
1
1
1
1
1
1
1
1
1
1
1
1
1
1
1
1
1
1
1
1
1
1
1
1
1
1
1
1
1
1
1
1
1
1
1
1
1
1
1
1
1
1
1
1
1
1
1
1
1
1
1
1
1
1
1
1
1
1
1
1
1
1
1
1
1
1
1
1
1
1
1
1
1
1
1
1
1
1
1
1
1
1
1
1
1
1
1
1
1
1
1
1
1
1
1
1
1
1
1
1
1
1
1
1
1
1
1
1
1
1
1
1
1
1
1
1
1
1
1
1
1
1
1
1
1
1
1
1
1
1
1
1
1
1
1
1
1
1
1
1
1
1
1
1
1
1
1
1
1
1
1
1
1
1
1
1
1
1
1
1
1
1
1
1
1
1
1
1
1
1
1
1
1
1
1
1
1
1
1
1
1
1
1
1
1
1
1
1
1
1
1
1
1
1
1
1
1
1
1
1
1
1
1
1
1
1
1
1
1
1
1
1
1
1
1
1
1
1
1
1
1
1
1
1
1
1
1
1
1
1
1
1
1
1
1
1
1
1
1
1
1
1
1
1
1
1
1
1
1
1
1
1
1
1
1
1
1
1
1
1
1
1
1
1
1
1
1
1
1
1
1
1
1
1
1
1
1
1
1
1
1
1
1
1
1
1
1
1
1
1
1
1
1
1
1
1
1
1
1
1
1
1
1
1
1
1
1
1
1
1
1
1
1
1
1
1
1
1
1
1
1
1
1
1
1
1
1
1
1
1
1
1
1
1
1
1
1
1
1
1
1
1
1
1
1
1
1
1
1
1
1
1
1
1
1
1
1
1
1
1
1
1.07106
1.16588
1.26433
1.35204
1.43534
1.53523
1.62282
1.66868
1.71546
1.78906
1.81821
1.82905
1.82886
1.82242
1.80443
1.76598
1.7155
1.67948
1.66023
1.63857
1.62116
1.62185
1.62587
1.62602
1.62745
1.63196
1.64022
1.65012
1.65728
1.65944
1.65877
1.65746
1.65752
1.65899
1.65971
1.65938
1.65943
1.66115
1.66515
1.66773
1.66861
1.66858
1.66787
1.66698
1.66668
1.66643
1.66569
1.66448
1.66295
1.66186
1.66199
1.66377
1.66705
1.66979
1.67132
1.67222
1.67261
1.67259
1.67195
1.67104
1.66962
1.66817
1.6671
1.66643
1.66619
1.66637
1.66693
1.66808
1.67025
1.67308
1.67541
1.67658
1.67662
1.67605
1.67483
1.67385
1.67321
1.67266
1.67211
1.67193
1
0.999737
1.00185
1.02228
1.0526
1.08443
1.15957
1.25609
1.30965
1.37858
1.45458
1.50251
1.55046
1.58966
1.6139
1.62096
1.6551
1.69402
1.70125
1.69588
1.68292
1.67927
1.67821
1.67242
1.66435
1.65524
1.6522
1.6537
1.6561
1.65786
1.65807
1.65959
1.6631
1.66601
1.6666
1.66651
1.6664
1.66623
1.66597
1.66606
1.66642
1.66689
1.66797
1.66965
1.67082
1.67147
1.67146
1.67093
1.67018
1.66898
1.66816
1.66856
1.6693
1.66947
1.66933
1.66948
1.67014
1.67123
1.67251
1.67335
1.67386
1.67401
1.67392
1.67367
1.67315
1.67235
1.67182
1.67185
1.67226
1.6729
1.67353
1.67398
1.67406
1.67382
1.67368
1.67383
1.67403
1.67423
1.67466
1.67493
1
1
1
1
1
1
0.999881
1.00027
1.00382
1.01684
1.06723
1.13238
1.24077
1.37238
1.50105
1.63079
1.69662
1.7608
1.76129
1.75494
1.74648
1.73907
1.73075
1.7199
1.699
1.67682
1.6671
1.66774
1.66898
1.66933
1.6704
1.67367
1.67877
1.68115
1.68086
1.68008
1.68005
1.67987
1.6788
1.67724
1.67592
1.67489
1.67465
1.67585
1.67901
1.68178
1.68286
1.68276
1.68158
1.68052
1.68011
1.67963
1.67859
1.67713
1.67585
1.67412
1.6732
1.6734
1.67486
1.67786
1.6809
1.68245
1.68282
1.68268
1.68205
1.68096
1.67968
1.67879
1.67845
1.67808
1.67765
1.677
1.67608
1.67535
1.67511
1.67522
1.67592
1.67726
1.67863
1.67908
1
1
1
1
1
1
1
1
1
1
1
0.999816
1.00037
1.01169
1.05876
1.20302
1.36483
1.52537
1.6346
1.67826
1.72748
1.72975
1.72592
1.72781
1.73199
1.72719
1.71681
1.71191
1.70732
1.70168
1.69557
1.69136
1.68894
1.68884
1.69062
1.69344
1.69577
1.69647
1.69585
1.69448
1.6932
1.6912
1.68907
1.68854
1.68956
1.69083
1.6919
1.69323
1.69454
1.69544
1.69547
1.69451
1.69293
1.69104
1.68794
1.68449
1.68294
1.68301
1.68348
1.68434
1.68617
1.68865
1.69065
1.69163
1.69171
1.69095
1.68938
1.6879
1.68668
1.68553
1.68434
1.68304
1.6819
1.68131
1.68122
1.68117
1.68118
1.68147
1.68238
1.68261
1
1
1
1
1
1
1
1
1
1
1
1
1
1
1
0.99966
1.00516
1.03816
1.17406
1.32996
1.46963
1.58736
1.6612
1.7436
1.76284
1.75998
1.75689
1.75154
1.74477
1.73438
1.71744
1.70233
1.6965
1.69727
1.70129
1.70552
1.70769
1.70802
1.70672
1.70554
1.70589
1.70578
1.70466
1.70333
1.70364
1.70313
1.70175
1.70125
1.70157
1.70313
1.70506
1.70626
1.70624
1.70472
1.70237
1.70033
1.69794
1.69637
1.69595
1.69579
1.69587
1.69599
1.69631
1.69671
1.69695
1.69692
1.69628
1.69539
1.69483
1.69447
1.69384
1.69312
1.69244
1.69156
1.69102
1.69063
1.69026
1.69009
1.69011
1.68952
1
1
1
1
1
1
1
1
1
1
1
1
1
1
1
1
1
1
0.999714
1.00344
1.02458
1.13254
1.28101
1.43126
1.55893
1.63476
1.71063
1.72708
1.72645
1.72784
1.72711
1.71761
1.71188
1.71178
1.71369
1.71385
1.71322
1.7115
1.7085
1.70702
1.70841
1.71025
1.7107
1.71235
1.71215
1.71162
1.70989
1.70768
1.70655
1.70628
1.70711
1.70982
1.71226
1.71294
1.71291
1.71216
1.71134
1.71052
1.70935
1.70788
1.70642
1.70503
1.70365
1.7026
1.70172
1.70107
1.70078
1.70074
1.70132
1.70268
1.70361
1.70365
1.70328
1.70255
1.70189
1.70133
1.70078
1.7001
1.69926
1.69765
1
1
1
1
1
1
1
1
1
1
1
1
1
1
1
1
1
1
1
1
1
0.999775
1.00174
1.0187
1.11624
1.24653
1.39538
1.52532
1.61793
1.70309
1.72052
1.72683
1.72851
1.72653
1.72303
1.71755
1.70668
1.69927
1.69926
1.702
1.70619
1.71088
1.71532
1.71635
1.71565
1.71305
1.71067
1.70818
1.7069
1.70657
1.70685
1.70804
1.7104
1.71305
1.71503
1.71609
1.71655
1.71643
1.71599
1.71519
1.7132
1.71081
1.7087
1.7072
1.70621
1.70554
1.70523
1.70524
1.70566
1.70692
1.7083
1.70881
1.70887
1.70895
1.70903
1.70896
1.70849
1.70734
1.70599
1.70377
1
1
1
1
1
1
1
1
1
1
1
1
1
1
1
1
1
1
1
1
1
1
1
1
0.999867
1.00117
1.01545
1.10522
1.22641
1.37645
1.50593
1.60952
1.68949
1.69646
1.69937
1.70468
1.69974
1.69417
1.69545
1.70036
1.70468
1.70873
1.71118
1.71124
1.71146
1.7133
1.71404
1.71236
1.70906
1.7071
1.70633
1.70684
1.7079
1.70887
1.70995
1.71161
1.7134
1.71527
1.71631
1.71622
1.71602
1.7155
1.71452
1.71333
1.71186
1.71022
1.70903
1.70889
1.70953
1.71025
1.71034
1.71041
1.71037
1.71041
1.71059
1.71071
1.71052
1.70963
1.70872
1.70728
1
1
1
1
1
1
1
1
1
1
1
1
1
1
1
1
1
1
1
1
1
1
1
1
1
0.999999
1
0.999945
1.00114
1.0167
1.10334
1.22611
1.38738
1.50377
1.60721
1.67234
1.68672
1.69361
1.69815
1.70069
1.6996
1.69632
1.69468
1.69656
1.70116
1.70593
1.70802
1.70918
1.71051
1.71121
1.71076
1.70899
1.70699
1.70556
1.70512
1.7052
1.70575
1.70657
1.70816
1.71011
1.71164
1.71296
1.71447
1.7152
1.71514
1.71458
1.7136
1.71264
1.71187
1.71111
1.71041
1.70965
1.70907
1.7088
1.70895
1.70925
1.70948
1.70954
1.70977
1.71004
1
1
1
1
1
1
1
1
1
1
1
1
1
1
1
1
1
1
1
1
1
1
1
1
1
1
1
1
0.999998
1
1.00003
1.00162
1.0234
1.11002
1.22269
1.3808
1.50701
1.62281
1.6703
1.67184
1.67812
1.68166
1.67735
1.67672
1.68053
1.68788
1.6952
1.70058
1.70303
1.7043
1.70583
1.70859
1.7101
1.7092
1.7053
1.7012
1.69933
1.69921
1.6998
1.70146
1.70335
1.7057
1.70867
1.71125
1.71223
1.71193
1.71195
1.71256
1.71324
1.71288
1.7115
1.70942
1.7078
1.70762
1.70807
1.70871
1.70919
1.70951
1.7098
1.71074
1
1
1
1
1
1
1
1
1
1
1
1
1
1
1
1
1
1
1
1
1
1
1
1
1
1
1
1
1
1
1
0.999998
0.999989
1.00015
1.00201
1.03044
1.12299
1.26413
1.413
1.5276
1.62688
1.66603
1.67026
1.67277
1.6734
1.67305
1.67596
1.68002
1.68476
1.69004
1.69573
1.7007
1.70293
1.70377
1.70419
1.70337
1.70063
1.69816
1.69663
1.69619
1.69696
1.69928
1.7015
1.7022
1.70302
1.70431
1.70601
1.70837
1.71
1.71018
1.70973
1.70914
1.70858
1.70803
1.70783
1.70792
1.70825
1.70882
1.70952
1.71048
1
1
1
1
1
1
1
1
1
1
1
1
1
1
1
1
1
1
1
1
1
1
1
1
1
1
1
1
1
1
1
1
1
1
1
0.999982
1.00034
1.00509
1.05231
1.14802
1.29743
1.44232
1.56715
1.65068
1.66548
1.66451
1.67116
1.66895
1.66787
1.67028
1.67426
1.67971
1.68749
1.69341
1.69515
1.69575
1.69683
1.69907
1.70029
1.69994
1.69831
1.69651
1.69541
1.69508
1.69483
1.69528
1.69684
1.69976
1.70304
1.70482
1.70507
1.70508
1.70536
1.70599
1.70718
1.70802
1.70853
1.70894
1.7092
1.70924
1
1
1
1
1
1
1
1
1
1
1
1
1
1
1
1
1
1
1
1
1
1
1
1
1
1
1
1
1
1
1
1
1
1
1
1
1
0.999993
1.00004
1.0008
1.01138
1.07987
1.20275
1.37612
1.49596
1.59927
1.65477
1.66676
1.67087
1.67131
1.66645
1.666
1.66857
1.67283
1.67536
1.67941
1.68621
1.69288
1.69573
1.69617
1.69691
1.69761
1.69714
1.69543
1.69196
1.68965
1.68995
1.69224
1.6956
1.69707
1.69753
1.69807
1.69943
1.70186
1.70362
1.70495
1.70571
1.7063
1.70704
1.70773
1
1
1
1
1
1
1
1
1
1
1
1
1
1
1
1
1
1
1
1
1
1
1
1
1
1
1
1
1
1
1
1
1
1
1
1
1
1
1
1
0.999986
1.00019
1.00282
1.03678
1.13542
1.26959
1.42759
1.55557
1.64865
1.66949
1.66847
1.67272
1.67037
1.66528
1.66382
1.66526
1.67005
1.67602
1.68286
1.68742
1.69055
1.6924
1.69354
1.69339
1.69197
1.69069
1.69019
1.69023
1.69076
1.69124
1.6915
1.69193
1.69326
1.69517
1.69764
1.69991
1.70081
1.7014
1.7024
1.70384
1
1
1
1
1
1
1
1
1
1
1
1
1
1
1
1
1
1
1
1
1
1
1
1
1
1
1
1
1
1
1
1
1
1
1
1
1
1
1
1
0.999999
1
0.999995
1.00003
1.00095
1.00985
1.08085
1.21323
1.38904
1.516
1.6144
1.65716
1.66938
1.67349
1.67348
1.66838
1.66761
1.66831
1.67026
1.67272
1.67398
1.67765
1.68237
1.68591
1.6864
1.6862
1.6865
1.68906
1.69144
1.69204
1.69122
1.68913
1.6887
1.6894
1.69143
1.69334
1.69417
1.69494
1.69609
1.69825
1
1
1
1
1
1
1
1
1
1
1
1
1
1
1
1
1
1
1
1
1
1
1
1
1
1
1
1
1
1
1
1
1
1
1
1
1
1
1
1
1
1
1
1
1
0.99999
1.00035
1.00439
1.05048
1.17717
1.32672
1.46874
1.58137
1.65913
1.6736
1.67366
1.67992
1.68102
1.67633
1.67145
1.66871
1.66865
1.67182
1.67385
1.67504
1.67758
1.68143
1.6858
1.6891
1.68995
1.6889
1.68742
1.68773
1.6882
1.68881
1.6892
1.68916
1.68931
1.69007
1.69226
1
1
1
1
1
1
1
1
1
1
1
1
1
1
1
1
1
1
1
1
1
1
1
1
1
1
1
1
1
1
1
1
1
1
1
1
1
1
1
1
1
1
1
1
1
0.999999
1
0.999993
1.00016
1.00269
1.02391
1.13556
1.28666
1.45698
1.57153
1.64097
1.67035
1.67895
1.68029
1.67985
1.67786
1.67562
1.67447
1.67143
1.66942
1.67031
1.67228
1.67601
1.68025
1.68293
1.68285
1.683
1.6834
1.68449
1.68643
1.68773
1.68774
1.6871
1.68704
1.68805
1
1
1
1
1
1
1
1
1
1
1
1
1
1
1
1
1
1
1
1
1
1
1
1
1
1
1
1
1
1
1
1
1
1
1
1
1
1
1
1
1
1
1
1
1
1
1
0.999999
1
0.999996
1.00002
1.00178
1.01463
1.1156
1.30593
1.46072
1.54666
1.62297
1.67043
1.68022
1.67956
1.6826
1.68599
1.68346
1.67818
1.67488
1.6739
1.67488
1.67736
1.67702
1.67601
1.67558
1.67613
1.67987
1.68362
1.68463
1.68449
1.68439
1.68486
1.68589
1
1
1
1
1
1
1
1
1
1
1
1
1
1
1
1
1
1
1
1
1
1
1
1
1
1
1
1
1
1
1
1
1
1
1
1
1
1
1
1
1
1
1
1
1
1
1
1
1
1
1
0.999998
1
1.00182
1.01824
1.10906
1.27907
1.44322
1.56873
1.62164
1.64879
1.66832
1.67864
1.68155
1.68131
1.68098
1.68176
1.68456
1.68475
1.68099
1.67429
1.67134
1.67203
1.67523
1.67855
1.6796
1.68021
1.68134
1.68201
1.68283
1
1
1
1
1
1
1
1
1
1
1
1
1
1
1
1
1
1
1
1
1
1
1
1
1
1
1
1
1
1
1
1
1
1
1
1
1
1
1
1
1
1
1
1
1
1
1
1
1
1
1
1
1
0.999999
1.00001
1.00156
1.01629
1.09094
1.28678
1.50349
1.59133
1.61477
1.63961
1.66674
1.66743
1.67037
1.67972
1.6867
1.68724
1.68369
1.67769
1.67457
1.67462
1.67656
1.67853
1.6782
1.6779
1.67794
1.67851
1.67984
1
1
1
1
1
1
1
1
1
1
1
1
1
1
1
1
1
1
1
1
1
1
1
1
1
1
1
1
1
1
1
1
1
1
1
1
1
1
1
1
1
1
1
1
1
1
1
1
1
1
1
1
1
1
1
0.999999
1.00001
1.00128
1.02148
1.13279
1.34306
1.50207
1.61281
1.65109
1.65517
1.65486
1.66094
1.67173
1.67824
1.67674
1.67368
1.67474
1.67861
1.68251
1.68316
1.68229
1.68031
1.67879
1.67771
1.67769
1
1
1
1
1
1
1
1
1
1
1
1
1
1
1
1
1
1
1
1
1
1
1
1
1
1
1
1
1
1
1
1
1
1
1
1
1
1
1
1
1
1
1
1
1
1
1
1
1
1
1
1
1
1
1
1
1
0.999998
1.00006
1.00296
1.04188
1.15567
1.35283
1.54763
1.66228
1.665
1.66783
1.66452
1.66635
1.66564
1.66187
1.66301
1.67184
1.6813
1.68331
1.68126
1.67858
1.67866
1.67907
1.67911
1
1
1
1
1
1
1
1
1
1
1
1
1
1
1
1
1
1
1
1
1
1
1
1
1
1
1
1
1
1
1
1
1
1
1
1
1
1
1
1
1
1
1
1
1
1
1
1
1
1
1
1
1
1
1
1
1
1
1
0.999998
1.00022
1.00448
1.05126
1.20793
1.46063
1.59768
1.65409
1.67736
1.67722
1.67619
1.66914
1.66848
1.67298
1.67583
1.67709
1.67548
1.67305
1.67488
1.67869
1.67957
1
1
1
1
1
1
1
1
1
1
1
1
1
1
1
1
1
1
1
1
1
1
1
1
1
1
1
1
1
1
1
1
1
1
1
1
1
1
1
1
1
1
1
1
1
1
1
1
1
1
1
1
1
1
1
1
1
1
1
1
0.999999
1
1.00044
1.0108
1.12466
1.32597
1.48269
1.60885
1.67176
1.6808
1.68224
1.68784
1.6897
1.68478
1.67722
1.67138
1.66949
1.67091
1.67489
1.6771
1
1
1
1
1
1
1
1
1
1
1
1
1
1
1
1
1
1
1
1
1
1
1
1
1
1
1
1
1
1
1
1
1
1
1
1
1
1
1
1
1
1
1
1
1
1
1
1
1
1
1
1
1
1
1
1
1
1
1
1
1
1
0.999999
1.00004
1.00282
1.03628
1.1861
1.38251
1.56479
1.62423
1.66109
1.68477
1.68707
1.68605
1.68175
1.67746
1.67603
1.67601
1.67729
1.67751
1
1
1
1
1
1
1
1
1
1
1
1
1
1
1
1
1
1
1
1
1
1
1
1
1
1
1
1
1
1
1
1
1
1
1
1
1
1
1
1
1
1
1
1
1
1
1
1
1
1
1
1
1
1
1
1
1
1
1
1
1
1
1
1
0.999999
1.00034
1.00829
1.06764
1.27891
1.52292
1.60872
1.63866
1.66477
1.67408
1.67499
1.67751
1.68063
1.68266
1.68447
1.68386
1
1
1
1
1
1
1
1
1
1
1
1
1
1
1
1
1
1
1
1
1
1
1
1
1
1
1
1
1
1
1
1
1
1
1
1
1
1
1
1
1
1
1
1
1
1
1
1
1
1
1
1
1
1
1
1
1
1
1
1
1
1
1
1
1
0.999999
1.00001
1.00138
1.02494
1.19893
1.43939
1.59353
1.64336
1.65798
1.6644
1.66798
1.66789
1.67066
1.67634
1.68101
1
1
1
1
1
1
1
1
1
1
1
1
1
1
1
1
1
1
1
1
1
1
1
1
1
1
1
1
1
1
1
1
1
1
1
1
1
1
1
1
1
1
1
1
1
1
1
1
1
1
1
1
1
1
1
1
1
1
1
1
1
1
1
1
1
1
1
1
1.00025
1.014
1.11538
1.31279
1.51623
1.64531
1.68268
1.68118
1.66986
1.66523
1.66559
1.67068
1
1
1
1
1
1
1
1
1
1
1
1
1
1
1
1
1
1
1
1
1
1
1
1
1
1
1
1
1
1
1
1
1
1
1
1
1
1
1
1
1
1
1
1
1
1
1
1
1
1
1
1
1
1
1
1
1
1
1
1
1
1
1
1
1
1
1
1
1
1.0001
1.0031
1.04549
1.20794
1.45525
1.64467
1.67348
1.67865
1.68658
1.68103
1.67303
1
1
1
1
1
1
1
1
1
1
1
1
1
1
1
1
1
1
1
1
1
1
1
1
1
1
1
1
1
1
1
1
1
1
1
1
1
1
1
1
1
1
1
1
1
1
1
1
1
1
1
1
1
1
1
1
1
1
1
1
1
1
1
1
1
1
1
1
1
1
1
1.00066
1.0162
1.15202
1.4204
1.58346
1.66345
1.67896
1.68086
1.68194
1
1
1
1
1
1
1
1
1
1
1
1
1
1
1
1
1
1
1
1
1
1
1
1
1
1
1
1
1
1
1
1
1
1
1
1
1
1
1
1
1
1
1
1
1
1
1
1
1
1
1
1
1
1
1
1
1
1
1
1
1
1
1
1
1
1
1
1
1
1
1
1
1.00019
1.00782
1.10876
1.367
1.55314
1.61672
1.65762
1.68648
1
1
1
1
1
1
1
1
1
1
1
1
1
1
1
1
1
1
1
1
1
1
1
1
1
1
1
1
1
1
1
1
1
1
1
1
1
1
1
1
1
1
1
1
1
1
1
1
1
1
1
1
1
1
1
1
1
1
1
1
1
1
1
1
1
1
1
1
1
1
1
1
1
1.00006
1.0047
1.07431
1.29832
1.51888
1.60807
1.65847
1
1
1
1
1
1
1
1
1
1
1
1
1
1
1
1
1
1
1
1
1
1
1
1
1
1
1
1
1
1
1
1
1
1
1
1
1
1
1
1
1
1
1
1
1
1
1
1
1
1
1
1
1
1
1
1
1
1
1
1
1
1
1
1
1
1
1
1
1
1
1
1
1
1
1.00003
1.00265
1.04149
1.22054
1.48587
1.64877
1
1
1
1
1
1
1
1
1
1
1
1
1
1
1
1
1
1
1
1
1
1
1
1
1
1
1
1
1
1
1
1
1
1
1
1
1
1
1
1
1
1
1
1
1
1
1
1
1
1
1
1
1
1
1
1
1
1
1
1
1
1
1
1
1
1
1
1
1
1
1
1
1
1
1
1.00001
1.0008
1.02397
1.1775
1.55114
1
1
1
1
1
1
1
1
1
1
1
1
1
1
1
1
1
1
1
1
1
1
1
1
1
1
1
1
1
1
1
1
1
1
1
1
1
1
1
1
1
1
1
1
1
1
1
1
1
1
1
1
1
1
1
1
1
1
1
1
1
1
1
1
1
1
1
1
1
1
1
1
1
1
1
1
1
1.00055
1.01354
1.35322
1
1
1
1
1
1
1
1
1
1
1
1
1
1
1
1
1
1
1
1
1
1
1
1
1
1
1
1
1
1
1
1
1
1
1
1
1
1
1
1
1
1
1
1
1
1
1
1
1
1
1
1
1
1
1
1
1
1
1
1
1
1
1
1
1
1
1
1
1
1
1
1
1
1
1
1
1
1
1.00041
1.11141
1
1
1
1
1
1
1
1
1
1
1
1
1
1
1
1
1
1
1
1
1
1
1
1
1
1
1
1
1
1
1
1
1
1
1
1
1
1
1
1
1
1
1
1
1
1
1
1
1
1
1
1
1
1
1
1
1
1
1
1
1
1
1
1
1
1
1
1
1
1
1
1
1
1
1
1
1
1
1.00001
1.01562
1
1
1
1
1
1
1
1
1
1
1
1
1
1
1
1
1
1
1
1
1
1
1
1
1
1
1
1
1
1
1
1
1
1
1
1
1
1
1
1
1
1
1
1
1
1
1
1
1
1
1
1
1
1
1
1
1
1
1
1
1
1
1
1
1
1
1
1
1
1
1
1
1
1
1
1
1
1
1
1.00128
1
1
1
1
1
1
1
1
1
1
1
1
1
1
1
1
1
1
1
1
1
1
1
1
1
1
1
1
1
1
1
1
1
1
1
1
1
1
1
1
1
1
1
1
1
1
1
1
1
1
1
1
1
1
1
1
1
1
1
1
1
1
1
1
1
1
1
1
1
1
1
1
1
1
1
1
1
1
1
1.00007
1
1
1
1
1
1
1
1
1
1
1
1
1
1
1
1
1
1
1
1
1
1
1
1
1
1
1
1
1
1
1
1
1
1
1
1
1
1
1
1
1
1
1
1
1
1
1
1
1
1
1
1
1
1
1
1
1
1
1
1
1
1
1
1
1
1
1
1
1
1
1
1
1
1
1
1
1
1
1
1
)
;

boundaryField
{
    inlet
    {
        type            fixedValue;
        value           uniform 1;
    }
    outlet
    {
        type            zeroGradient;
    }
    bottom
    {
        type            symmetryPlane;
    }
    top
    {
        type            symmetryPlane;
    }
    obstacle
    {
        type            zeroGradient;
    }
    defaultFaces
    {
        type            empty;
    }
}


// ************************************************************************* //
