/*--------------------------------*- C++ -*----------------------------------*\
| =========                 |                                                 |
| \\      /  F ield         | OpenFOAM: The Open Source CFD Toolbox           |
|  \\    /   O peration     | Version:  2206                                  |
|   \\  /    A nd           | Website:  www.openfoam.com                      |
|    \\/     M anipulation  |                                                 |
\*---------------------------------------------------------------------------*/
FoamFile
{
    version     2.0;
    format      ascii;
    arch        "LSB;label=32;scalar=64";
    class       volVectorField;
    location    "0.18";
    object      U;
}
// * * * * * * * * * * * * * * * * * * * * * * * * * * * * * * * * * * * * * //

dimensions      [0 1 -1 0 0 0 0];

internalField   nonuniform List<vector> 
75
(
(4.05051 -5.06546e-15 0)
(4.05051 -5.05004e-15 0)
(4.05051 -1.58361e-17 0)
(4.05051 -3.01719e-16 0)
(4.05051 -9.08907e-16 0)
(4.05051 -3.91734e-16 0)
(4.05051 -6.63365e-15 0)
(4.05051 -6.33484e-15 0)
(4.05051 -6.23191e-15 0)
(4.05051 -5.3142e-15 0)
(4.05051 -5.04545e-15 0)
(4.05051 -4.98919e-15 0)
(4.05051 -9.20492e-15 0)
(4.05051 -8.43229e-15 0)
(4.05051 -8.45896e-16 0)
(4.05051 -4.53245e-15 0)
(4.05051 -7.37627e-16 0)
(4.05051 3.71898e-15 0)
(4.05051 7.71967e-15 0)
(4.05051 1.44889e-14 0)
(4.05051 4.53245e-15 0)
(4.05051 4.21823e-15 0)
(4.05051 7.52838e-15 0)
(4.05051 1.46409e-14 0)
(4.05051 1.51026e-14 0)
(4.00963 -0.0154444 0)
(3.94055 0.102703 0)
(3.89047 0.108402 0)
(3.80004 0.284512 0)
(3.76393 0.331264 0)
(3.66026 0.519505 0)
(3.6352 0.589608 0)
(3.57263 0.760265 0)
(3.49077 0.887876 0)
(3.47508 0.965641 0)
(4.05 4.54023e-05 0)
(4.03929 0.0190123 0)
(4.02092 0.0601361 0)
(3.96092 0.182943 0)
(3.90121 0.344226 0)
(3.75952 0.636033 0)
(3.68269 0.876147 0)
(3.50458 1.22077 0)
(3.39209 1.22254 0)
(3.41348 1.10489 0)
(4.05051 -6.81009e-06 0)
(4.05046 9.78686e-05 0)
(4.05055 -0.000121975 0)
(4.04984 0.00128975 0)
(4.04707 0.00811523 0)
(4.03118 0.0493629 0)
(3.99747 0.15503 0)
(3.91392 0.445964 0)
(3.79445 0.814422 0)
(3.57838 0.989632 0)
(4.05051 -1.01466e-06 0)
(4.05051 -1.61044e-06 0)
(4.05051 -1.26285e-05 0)
(4.05052 -3.77045e-05 0)
(4.0505 2.52771e-05 0)
(4.05064 -0.000419555 0)
(4.04888 0.00511358 0)
(4.03556 0.0562472 0)
(3.95203 0.437144 0)
(3.66827 0.892124 0)
(4.05051 2.21557e-09 0)
(4.05051 -3.97614e-07 0)
(4.05051 -2.73071e-07 0)
(4.05051 -9.68921e-06 0)
(4.05051 -8.43568e-06 0)
(4.05054 -4.19148e-05 0)
(4.05056 -7.51881e-05 0)
(4.04987 0.000632594 0)
(4.01773 0.0478027 0)
(3.67215 0.356921 0)
)
;

boundaryField
{
    inlet
    {
        type            fixedValue;
        value           uniform (4.05051 0 0);
    }
    outlet
    {
        type            zeroGradient;
    }
    bottom
    {
        type            symmetryPlane;
    }
    top
    {
        type            symmetryPlane;
    }
    obstacle
    {
        type            slip;
    }
    defaultFaces
    {
        type            empty;
    }
}


// ************************************************************************* //
