/*--------------------------------*- C++ -*----------------------------------*\
| =========                 |                                                 |
| \\      /  F ield         | OpenFOAM: The Open Source CFD Toolbox           |
|  \\    /   O peration     | Version:  2206                                  |
|   \\  /    A nd           | Website:  www.openfoam.com                      |
|    \\/     M anipulation  |                                                 |
\*---------------------------------------------------------------------------*/
FoamFile
{
    version     2.0;
    format      ascii;
    arch        "LSB;label=32;scalar=64";
    class       volScalarField;
    location    "0.2";
    object      p;
}
// * * * * * * * * * * * * * * * * * * * * * * * * * * * * * * * * * * * * * //

dimensions      [1 -1 -2 0 0 0 0];

internalField   nonuniform List<scalar> 
4800
(
1
1
1
1
1
1
1
1
1
1
1
1
1
1
1
1
1
1
1
1
1
1
1
1
1
1
1
1
1
1
1
1
1
1
1
1
1
1
1
1
1
1
1
1
1
1
1
1
1
1
1
1
1
1
1
1
1
1
1
1
1
1
1
1
1
1
1
1
1
1
1
1
1
1
1
1
1
1
1
1
1
1
1
1
1
1
1
1
1
1
1
1
1
1
1
1
1
1
1
1
1
1
1
1
1
1
1
1
1
1
1
1
1
1
1
1
1
1
1
1
1
1
1
1
1
1
1
1
1
1
1
1
1
1
1
1
1
1
1
1
1
1
1
1
1
1
1
1
1
1
1
1
1
1
1
1
1
1
1
1
1
1
1
1
1
1
1
1
1
1
1
1
1
1
1
1
1
1
1
1
1
1
1
1
1
1
1
1
1
1
1
1
1
1
1
1
1
1
1
1
1
1
1
1
1
1
1
1
1
1
1
1
1
1
1
1
1
1
1
1
1
1
1
1
1
1
1
1
1
1
1
1
1
1
1
1
1
1
1
1
1
1
1
1
1
1
1
1
1
1
1
1
1
1
1
1
1
1
1
1
1
1
1
1
1
1
1
1
1
1
1
1
1
1
1
1
1
1
1
1
1
1
1
1
1
1
1
1
1
1
1
1
1
1
1
1
1
1
1
1
1
1
1
1
1
1
1
1
1
1
1
1
1
1
1
1
1
1
1
1
1
1
1
1
1
1
1
1
1
1
1
1
1
1
1
1
1
1
1
1
1
1
1
1
1
1
1
1
1
1
1
1
1
1
1
1
1
1
1
1
1
1
1
1
1
1
1
1
1
1
1
1
1
1
1
1
1
1
1
1
1
1
1
1
1
1
1
1
1
1
1
1
1
1
1
1
1
1
1
1
1
1
1
1
1
1
1
1
1
1
1
1
1
1
1
1
1
1
1
1
1
1
1
1
1
1
1
1
1
1
1
1
1
1
1
1
1
1
1
1
1
1
1
1
1
1
1
1
1
1
1
1
1
1
1
1
1
1
1
1
1
1
1
1
1
1
1
1
1
1
1
1
1
1
1
1
1
1
1
1
1
1
1
1
1
1
1
1
1
1
1
1
1
1
1
1
1
1
1
1
1
1
1
1
1
1
1
1
1
1
1
1
1
1
1
1
1
1
1
1
1
1
1
1
1
1
1
1
1
1
1
1
1
1
1
1
1
1
1
1
1
1
1
1
1
1
1
1
1
1
1
1
1
1
1
1
1
1
1
1
1
1
1
1
1
1
1
1
1
1
1
1
1
1
1
1
1
1
1
1
1
1
1
1
1
1
1
1
1
1
1
1
1
1
1
1
1
1
1
1
1
1
1
1
1
1
1
1
1
1
1
1
1
1
1
1
1
1
1
1
1
1
1
1
1
1
1
1
1
1
1
1
1
1
1
1
1
1
1
1
1
1
1
1
1
1
1
1
1
1
1
1
1
1
1
1
1
1
1
1
1
1
1
1
1
1
1
1
1
1
1
1
1
1
1
1
1
1
1
1
1
1
1
1
1
1
1
1
1
1
1
1
1
1
1
1
1
1
1
1
1
1
1
1
1
1
1
1
1
1
1
1
1
1
1
1
1
1
1
1
1
1
1
1
1
1
1
1
1
1
1
1
1
1
1
1
1
1
1
1
1
1
1
1
1
1
1
1
1
1
1
1
1
1
1
1
1
1
1
1
1
1
1
1
1
1
1
1
1
1
1
1
1
1
1
1
1
1
1
1
1
1
1
1
1
1
1
1
1
1
1
1
1
1
1
1
1
1
1
1
1
1
1
1
1
1
1
1
1
1
1
1
1
1
1
1
1
1
1
1
1
1
1
1
1
1
1
1
1
1
1
1
1
1
1
1
1
1
1
1
1
1
1
1
1
1
1
1
1
1
1
1
1
1
1
1
1
1
1
1
1
1
1
1
1
1
1
1
1
1
1
1
1
1
1
1
1
1
1
1
1
1
1
1
1
1
1
1
1
1
1
1
1
1
1
1
1
1
1
1
1
1
1
1
1
1
1
1
1
1
1
1
1
1
1
1
1
1
1
1
1
1
1
1
1
1
1
1
1
1
1
1
1
1
1
1
1
1
1
1
1
1
1
1
1
1
1
1
1
1
1
1
1
1
1
1
1
1
1
1
1
1
1
1
1
1
1
1
1
1
1
1
1
1
1
1
1
1
1
1
1
1
1
1
1
1
1
1
1
1
1
1
1
1
1
1
1
1
1
1
1
1
1
1
1
1
1
1
1
1
1
1
1
1
1
1
1
1
1
1
1
1
1
1
1
1
1
1
1
1
1
1
1
1
1
1
1
1
1
1
1
1
1
1
1
1
1
1
1
1
1
1
1
1
1
1
1
1
1
1
1
1
1
1
1
1
1
1
1
1
1
1
1
1
1
1
1
1
1
1
1
1
1
1
1
1
1
1
1
1
1
1
1
1
1
1
1
1
1
1
1
1
1
1
1
1
1
1
1
1
1
1
1
1
1
1
1
1
1
1
1
1
1
1
1
1
1
1
1
1
1
1
1
1
1
1
1
1
1
1
1
1
1
1
1
1
1
1
1
1
1
1
1
1
1
1
1
1
1
1
1
1
1
1
1
1
1
1
1
1
1
1
1
1
1
1
1
1
1
1
1
1
1
1
1
1
1
1
1
1
1
1
1
1
1
1
1
1
1
1
1
1
1
1
1
1
1
1
1
1
1
1
1
1
1
1
1
1
1
1
1
1
1
1
1
1
1
1
1
1
1
1
1
1
1
1
1
1
1
1
1
1
1
1
1
1
1
1
1
1
1
1
1
1
1
1
1
1
1
1
1
1
1
1
1
1
1
1
1
1
1
1
1
1
1
1
1
1
1
1
1
1
1
1
1
1
1
1
1
1
1
1
1
1
1
1
1
1
1
1
1
1
1
1
1
1
1
1
1
1
1
1
1
1
1
1
1
1
1
1
1
1
1
1
1
1
1
1
1
1
1
1
1
1
1
1
1
1
1
1
1
1
1
1
1
1
1
1
1
1
1
1
1
1
1
1
1
1
1
1
1
1
1
1
1
1
1
1
1
1
1
1
1
1
1
1
1
1
1
1
1
1
1
1
1
1
1
1
1
1
1
1
1
1
1
1
1
1
1
1
1
1
1
1
1
1
1
1
1
1
1
1
1
1
1
1
1
1
1
1
1
1
1
1
1
1
1
1
1
1
1
1
1
1
1
1
1
1
1
1
1
1
1
1
1
1
1
1
1
1
1
1
1
1
1
1
1
1
1
1
1
1
1
1
1
1
1
1
1
1
1
1
1
1
1
1
1
1
1
1
1
1
1
1
1
1
1
1
1
1
1
1
1
1
1
1
1
1
1
1
1
1
1
1
1
1
1
1
1
1
1
1
1
1
1
1
1
1
1
1
1
1
1
1
1
1
1
1
1
1
1
1
1
1
1
1
1
1
1
1
1
1
1
1
1
1
1
1
1
1
1
1
1
1
1
1
1
1
1
1
1
1
1
1
1
1
1
1
1
1
1
1
1
1
1
1
1
1
1
1
1
1
1
1
1
1
1
1
1
1
1
1
1
1
1
1
1
1
1
1
1.27606
1.70621
2.15597
2.69931
3.1979
3.53537
3.90935
4.15921
4.12593
3.95623
3.69656
3.44625
3.21185
3.08049
2.99105
2.97358
2.98014
3.00888
3.04645
3.0717
3.07252
3.07289
3.07639
3.08367
3.09209
3.1008
3.11114
3.12131
3.12344
3.12277
3.12105
3.11706
3.11083
3.10994
3.11012
3.11154
3.11681
3.12277
3.12484
3.12542
3.12382
3.11962
3.1145
3.11114
3.11001
3.1098
3.11003
3.11131
3.11362
3.1152
3.11586
3.1162
3.11576
3.11471
3.11435
3.11405
3.11395
3.11476
3.11567
3.11585
3.116
3.11575
3.1149
3.11441
3.11453
3.11495
3.11596
3.11746
3.11827
3.11825
3.11798
3.11743
3.11651
3.11577
3.1157
3.11576
3.11607
3.11692
3.11785
3.11797
1.00461
1.03465
1.11828
1.23592
1.47558
1.77431
2.12358
2.49941
2.85447
3.0177
3.16221
3.35211
3.31176
3.23245
3.19798
3.17032
3.1232
3.10063
3.07756
3.05872
3.05588
3.05928
3.06981
3.08414
3.09276
3.09759
3.10357
3.10703
3.10656
3.10679
3.10697
3.10566
3.10482
3.10572
3.10675
3.1085
3.11286
3.11809
3.12077
3.12162
3.12111
3.11839
3.11481
3.11373
3.11376
3.11445
3.11612
3.11798
3.11895
3.11929
3.11909
3.11834
3.11684
3.11552
3.11527
3.11522
3.11554
3.11689
3.11796
3.11808
3.11801
3.1175
3.11642
3.11553
3.11557
3.11607
3.11686
3.11775
3.11819
3.11805
3.11764
3.11693
3.11589
3.11525
3.11524
3.11547
3.1161
3.11729
3.11817
3.11821
0.999996
1.00003
1.00052
1.00233
1.01166
1.04498
1.13009
1.34813
1.71859
2.33264
2.88747
3.3345
3.46417
3.43496
3.40609
3.35495
3.27001
3.13509
3.07766
3.05512
3.05617
3.07403
3.09195
3.09283
3.0913
3.09226
3.09894
3.10189
3.10015
3.10191
3.10414
3.10481
3.10381
3.10317
3.10312
3.10349
3.10552
3.10834
3.11116
3.11303
3.11416
3.1142
3.11335
3.11302
3.11358
3.11602
3.11947
3.12113
3.12138
3.12134
3.12081
3.11952
3.11759
3.11631
3.11625
3.11645
3.11707
3.11855
3.11968
3.11979
3.11964
3.11926
3.11835
3.11745
3.11743
3.11778
3.11837
3.11892
3.11913
3.11894
3.11855
3.11783
3.1166
3.11574
3.11581
3.11612
3.11684
3.1181
3.11889
3.11884
1
1
1
1
0.999999
1.00006
1.00059
1.00531
1.02789
1.16055
1.50587
2.06578
2.6678
3.01612
3.24783
3.22948
3.2241
3.23943
3.2286
3.19029
3.14384
3.12431
3.09985
3.0836
3.07568
3.07961
3.08918
3.10097
3.1107
3.1147
3.11483
3.11245
3.10764
3.10663
3.10699
3.10745
3.10894
3.10944
3.10944
3.11014
3.11048
3.11023
3.1105
3.11027
3.11076
3.1135
3.11725
3.11867
3.11901
3.11909
3.11818
3.11569
3.11323
3.11276
3.11339
3.11447
3.11607
3.1184
3.12006
3.12024
3.12012
3.12012
3.11951
3.11862
3.11851
3.11868
3.11914
3.11957
3.1194
3.11918
3.11887
3.11813
3.11667
3.11587
3.11601
3.11642
3.11732
3.1188
3.11958
3.11939
1
1
1
1
1
1
0.999999
1
1.00001
1.00082
1.01213
1.07249
1.35256
1.81901
2.4654
2.87893
3.15555
3.3187
3.30351
3.27965
3.22762
3.13525
3.06188
3.0659
3.0763
3.08035
3.08598
3.09692
3.11045
3.11712
3.11839
3.1173
3.11412
3.11544
3.11759
3.11916
3.12018
3.11862
3.11577
3.11375
3.11227
3.11172
3.11184
3.11171
3.11188
3.11393
3.11676
3.11761
3.11799
3.11799
3.11666
3.11338
3.11057
3.11026
3.11072
3.11178
3.1136
3.11595
3.11737
3.11721
3.11694
3.11687
3.11632
3.11608
3.11617
3.11634
3.11706
3.11773
3.11759
3.11739
3.11717
3.11657
3.11519
3.11464
3.11484
3.11526
3.11628
3.11804
3.11901
3.11866
1
1
1
1
1
1
1
1
1
1
0.999996
1.00017
1.00539
1.04529
1.19968
1.655
2.18289
2.81091
2.98527
3.11124
3.12927
3.10572
3.10319
3.10909
3.10577
3.09803
3.09237
3.08498
3.08545
3.0908
3.09883
3.1043
3.10927
3.11598
3.12156
3.1259
3.12804
3.12723
3.12453
3.11973
3.11536
3.1139
3.11356
3.11414
3.11554
3.11756
3.11857
3.11878
3.11863
3.118
3.11651
3.11382
3.11124
3.11054
3.11066
3.1115
3.11339
3.1161
3.11727
3.11679
3.11633
3.11582
3.1148
3.11467
3.11483
3.11509
3.11605
3.11681
3.11672
3.11658
3.11633
3.11561
3.11436
3.11396
3.11403
3.11441
3.11542
3.11721
3.11856
3.1182
1
1
1
1
1
1
1
1
1
1
1
1
0.999996
1.00007
1.00166
1.02836
1.13559
1.45512
2.005
2.56802
3.0291
3.10283
3.17594
3.16323
3.15127
3.13104
3.1052
3.0703
3.06264
3.06286
3.06828
3.07904
3.08791
3.09513
3.10326
3.11231
3.1213
3.12463
3.12365
3.11981
3.11384
3.11137
3.11118
3.11249
3.11579
3.11931
3.12124
3.12172
3.12165
3.12107
3.11969
3.11729
3.11544
3.11509
3.11523
3.11617
3.1179
3.11966
3.12001
3.11917
3.11827
3.11703
3.11587
3.11564
3.1155
3.11575
3.11686
3.11793
3.11796
3.11768
3.1171
3.11587
3.11469
3.11432
3.11438
3.11481
3.11579
3.11739
3.11876
3.11845
1
1
1
1
1
1
1
1
1
1
1
1
1
1
0.999998
1.00003
1.0009
1.01154
1.10205
1.32864
1.83934
2.38112
2.88708
3.07597
3.08763
3.14208
3.13629
3.10892
3.09376
3.08251
3.07447
3.07275
3.0756
3.07978
3.08581
3.09409
3.10246
3.10876
3.10803
3.10554
3.10348
3.10303
3.10346
3.10484
3.10862
3.11421
3.11889
3.12067
3.12125
3.12119
3.11998
3.11868
3.1182
3.11796
3.11824
3.11954
3.12181
3.12312
3.12262
3.12128
3.11968
3.11761
3.11616
3.11568
3.11531
3.11551
3.11671
3.11814
3.1185
3.11846
3.1179
3.11665
3.11558
3.11506
3.11502
3.11548
3.11651
3.11796
3.11908
3.11888
1
1
1
1
1
1
1
1
1
1
1
1
1
1
1
1
0.999999
1
1.00059
1.00616
1.06125
1.27548
1.68501
2.21544
2.69065
3.04165
3.12738
3.15114
3.15217
3.14447
3.12229
3.10434
3.09194
3.08903
3.09145
3.09193
3.09263
3.09813
3.09974
3.09911
3.1013
3.10223
3.10149
3.10139
3.10331
3.10824
3.1126
3.11397
3.11441
3.11419
3.11398
3.11421
3.11453
3.11499
3.11591
3.11821
3.12117
3.12194
3.12122
3.12
3.11834
3.11608
3.1147
3.11432
3.11412
3.11488
3.11735
3.11938
3.11962
3.11935
3.11849
3.11716
3.11609
3.11558
3.11558
3.11601
3.1169
3.11823
3.11911
3.11918
1
1
1
1
1
1
1
1
1
1
1
1
1
1
1
1
1
1
1
0.999998
1.00028
1.00487
1.03508
1.21378
1.57954
2.1465
2.57218
2.90883
3.06703
3.11529
3.13712
3.13346
3.11814
3.1159
3.11928
3.11871
3.1189
3.12114
3.11903
3.11316
3.11319
3.11408
3.11245
3.10927
3.10858
3.11021
3.11199
3.11237
3.11251
3.11169
3.11084
3.11091
3.11126
3.11208
3.11381
3.11657
3.11881
3.11885
3.1179
3.11676
3.11545
3.11394
3.11322
3.11316
3.11342
3.11481
3.1178
3.11982
3.11993
3.11961
3.11891
3.11756
3.11633
3.11598
3.11597
3.11619
3.117
3.11817
3.11869
3.11858
1
1
1
1
1
1
1
1
1
1
1
1
1
1
1
1
1
1
1
1
1
0.999998
1.00009
1.0036
1.02722
1.16059
1.54484
2.0839
2.51208
2.80634
3.02912
3.08658
3.09247
3.10417
3.1225
3.12486
3.12472
3.12369
3.12178
3.11945
3.1217
3.1255
3.12674
3.12576
3.12454
3.1242
3.12234
3.11994
3.11885
3.11724
3.11479
3.11301
3.11193
3.11237
3.11388
3.11603
3.11758
3.11743
3.11651
3.11544
3.11431
3.11293
3.11236
3.11253
3.1131
3.11483
3.11788
3.11958
3.11957
3.11921
3.11846
3.11713
3.11597
3.11564
3.11551
3.11558
3.11648
3.11778
3.11796
3.11779
1
1
1
1
1
1
1
1
1
1
1
1
1
1
1
1
1
1
1
1
1
1
1
0.999999
1.00006
1.00229
1.02787
1.12948
1.4711
1.97983
2.5731
2.79761
2.94243
3.00066
3.04349
3.07643
3.08399
3.09414
3.10266
3.10342
3.10401
3.10815
3.11534
3.1215
3.12307
3.12327
3.12238
3.1201
3.11896
3.11881
3.11842
3.11744
3.11649
3.11701
3.11881
3.12074
3.12114
3.12065
3.11913
3.11703
3.11475
3.11262
3.1119
3.11225
3.11292
3.11463
3.11752
3.11908
3.11911
3.11881
3.11793
3.11606
3.11492
3.11478
3.11491
3.11597
3.11719
3.11775
3.11789
3.11769
1
1
1
1
1
1
1
1
1
1
1
1
1
1
1
1
1
1
1
1
1
1
1
1
1
0.999998
1.00008
1.00146
1.02333
1.11455
1.42393
1.95557
2.58338
2.90076
2.97951
3.05629
3.0597
3.0689
3.07605
3.07296
3.07348
3.0779
3.08725
3.09862
3.10466
3.10818
3.11082
3.11174
3.11239
3.11362
3.11373
3.11336
3.11365
3.11515
3.11812
3.12073
3.12191
3.12186
3.12111
3.11983
3.11775
3.11524
3.11429
3.1148
3.11549
3.11687
3.11895
3.11943
3.11928
3.119
3.11776
3.11555
3.11435
3.11431
3.11473
3.11608
3.11808
3.1191
3.11901
3.11807
1
1
1
1
1
1
1
1
1
1
1
1
1
1
1
1
1
1
1
1
1
1
1
1
1
1
1
0.999999
1.00007
1.0013
1.01884
1.12827
1.43776
1.97275
2.52799
2.93796
3.04917
3.09605
3.10764
3.0892
3.08584
3.08655
3.08501
3.08933
3.09637
3.10051
3.10272
3.10355
3.10471
3.10665
3.10662
3.10669
3.10818
3.11081
3.11393
3.11712
3.11936
3.11977
3.11968
3.11887
3.11709
3.11483
3.11418
3.11493
3.11597
3.11759
3.11881
3.11878
3.1187
3.1188
3.11793
3.11601
3.11472
3.11465
3.11514
3.11638
3.11875
3.12029
3.12044
3.11884
1
1
1
1
1
1
1
1
1
1
1
1
1
1
1
1
1
1
1
1
1
1
1
1
1
1
1
1
1
0.999999
1.00006
1.00183
1.0192
1.14589
1.45015
2.00005
2.5493
2.9441
3.06634
3.10013
3.12187
3.13429
3.12925
3.1235
3.11822
3.1184
3.11918
3.11615
3.11435
3.11285
3.11073
3.10874
3.10822
3.11
3.11243
3.11627
3.11914
3.1194
3.11889
3.11747
3.1152
3.11324
3.11345
3.11445
3.11556
3.1166
3.11688
3.11664
3.11668
3.11703
3.11674
3.11566
3.11477
3.1147
3.11533
3.11658
3.11862
3.12018
3.12061
3.11893
1
1
1
1
1
1
1
1
1
1
1
1
1
1
1
1
1
1
1
1
1
1
1
1
1
1
1
1
1
1
1
0.999999
1.00007
1.00254
1.0211
1.16048
1.52784
2.08856
2.55985
2.91322
3.05141
3.10894
3.12986
3.13801
3.13448
3.13152
3.13061
3.12815
3.126
3.12457
3.12206
3.11832
3.11556
3.11634
3.11854
3.12116
3.12185
3.12139
3.12031
3.11826
3.1151
3.11333
3.11422
3.1155
3.11616
3.11635
3.11588
3.11505
3.11482
3.11522
3.11539
3.11529
3.11532
3.1156
3.11618
3.11696
3.11806
3.11919
3.11976
3.11825
1
1
1
1
1
1
1
1
1
1
1
1
1
1
1
1
1
1
1
1
1
1
1
1
1
1
1
1
1
1
1
1
1
1
1.00008
1.00353
1.03006
1.18889
1.63613
2.27938
2.65747
2.89792
3.00847
3.07302
3.09178
3.09796
3.10247
3.10626
3.11056
3.11576
3.11731
3.11668
3.11492
3.11604
3.11814
3.12001
3.12058
3.12019
3.12013
3.11917
3.11596
3.11394
3.11464
3.11576
3.11635
3.11632
3.1155
3.11424
3.11362
3.1139
3.11464
3.11579
3.11704
3.11807
3.11905
3.11935
3.11886
3.11864
3.11883
3.11745
1
1
1
1
1
1
1
1
1
1
1
1
1
1
1
1
1
1
1
1
1
1
1
1
1
1
1
1
1
1
1
1
1
1
1
1
1.00017
1.00554
1.05397
1.25864
1.7611
2.42809
2.86676
2.97339
3.04146
3.05843
3.06909
3.07503
3.0817
3.09215
3.09813
3.10104
3.10347
3.10586
3.1083
3.11166
3.11515
3.11664
3.1175
3.11729
3.11462
3.11336
3.11419
3.11537
3.11608
3.11601
3.11527
3.11363
3.11211
3.11203
3.11317
3.11534
3.11845
3.12034
3.12157
3.12209
3.12082
3.11896
3.11801
3.11662
1
1
1
1
1
1
1
1
1
1
1
1
1
1
1
1
1
1
1
1
1
1
1
1
1
1
1
1
1
1
1
1
1
1
1
1
1
1.00001
1.00052
1.0092
1.09246
1.36442
1.94878
2.57068
2.96467
3.0706
3.10564
3.11118
3.10492
3.09713
3.0994
3.10452
3.10572
3.10567
3.10596
3.10723
3.11031
3.11188
3.11286
3.11345
3.11326
3.11389
3.11479
3.11602
3.1171
3.11737
3.1168
3.11417
3.11098
3.11012
3.11118
3.11392
3.11813
3.12081
3.12216
3.12314
3.12234
3.11963
3.11673
3.11476
1
1
1
1
1
1
1
1
1
1
1
1
1
1
1
1
1
1
1
1
1
1
1
1
1
1
1
1
1
1
1
1
1
1
1
1
1
1
1
1.00003
1.00151
1.01786
1.16014
1.54713
2.16114
2.71966
3.01676
3.10604
3.1308
3.12686
3.12542
3.12957
3.13177
3.12833
3.123
3.12028
3.1188
3.11701
3.11503
3.11461
3.11529
3.11548
3.11586
3.11687
3.11794
3.11859
3.11831
3.11592
3.11221
3.11065
3.11118
3.11338
3.11724
3.12081
3.12266
3.12332
3.12261
3.11981
3.11562
3.11265
1
1
1
1
1
1
1
1
1
1
1
1
1
1
1
1
1
1
1
1
1
1
1
1
1
1
1
1
1
1
1
1
1
1
1
1
1
1
1
1
1
1.00011
1.00431
1.04242
1.27843
1.80872
2.41634
2.79736
3.01165
3.09679
3.09967
3.11255
3.12898
3.12853
3.12336
3.123
3.12384
3.12191
3.11897
3.11857
3.11819
3.11698
3.11639
3.11661
3.1173
3.1183
3.11904
3.11874
3.11674
3.1146
3.11383
3.11464
3.11723
3.12027
3.12245
3.12308
3.12262
3.12042
3.11607
3.11107
1
1
1
1
1
1
1
1
1
1
1
1
1
1
1
1
1
1
1
1
1
1
1
1
1
1
1
1
1
1
1
1
1
1
1
1
1
1
1
1
1
1
1.00001
1.00052
1.01254
1.09393
1.47153
2.11955
2.73203
2.93199
3.00781
3.04338
3.08616
3.09798
3.09552
3.09836
3.1062
3.11185
3.11513
3.11648
3.11611
3.11446
3.11196
3.1104
3.11101
3.11361
3.11733
3.11843
3.1184
3.11826
3.1174
3.11672
3.11687
3.11751
3.1187
3.12035
3.12039
3.11967
3.11703
3.11122
1
1
1
1
1
1
1
1
1
1
1
1
1
1
1
1
1
1
1
1
1
1
1
1
1
1
1
1
1
1
1
1
1
1
1
1
1
1
1
1
1
1
1
1
1.00006
1.00204
1.03946
1.22177
1.74436
2.47982
2.93809
3.04388
3.08304
3.0939
3.09699
3.10168
3.10503
3.1065
3.10957
3.11265
3.11287
3.11106
3.10782
3.1054
3.10625
3.10915
3.11254
3.11554
3.11714
3.11703
3.11693
3.11687
3.11621
3.11533
3.11533
3.11646
3.11807
3.11832
3.11818
3.11519
1
1
1
1
1
1
1
1
1
1
1
1
1
1
1
1
1
1
1
1
1
1
1
1
1
1
1
1
1
1
1
1
1
1
1
1
1
1
1
1
1
1
1
1
1
1
1.00051
1.0091
1.10304
1.47431
2.15714
2.75174
3.04915
3.12634
3.13678
3.13543
3.1291
3.12284
3.12077
3.12323
3.12384
3.1204
3.1136
3.10869
3.10929
3.11123
3.11191
3.11268
3.11355
3.11426
3.11531
3.11622
3.11581
3.11414
3.11354
3.1135
3.11431
3.1164
3.11725
3.11684
1
1
1
1
1
1
1
1
1
1
1
1
1
1
1
1
1
1
1
1
1
1
1
1
1
1
1
1
1
1
1
1
1
1
1
1
1
1
1
1
1
1
1
1
1
1
1
1.00006
1.00266
1.0395
1.30438
1.86113
2.5077
2.85994
3.05123
3.12427
3.10862
3.10651
3.11711
3.12748
3.12945
3.12546
3.11893
3.11517
3.11625
3.11767
3.1168
3.11414
3.11306
3.11347
3.11564
3.11763
3.11778
3.11643
3.11396
3.11187
3.11079
3.11146
3.11473
3.11779
1
1
1
1
1
1
1
1
1
1
1
1
1
1
1
1
1
1
1
1
1
1
1
1
1
1
1
1
1
1
1
1
1
1
1
1
1
1
1
1
1
1
1
1
1
1
1
1
1.00001
1.00068
1.01729
1.12768
1.58455
2.35108
2.86407
2.99559
3.03007
3.05757
3.08058
3.09664
3.10709
3.10916
3.10771
3.10855
3.11312
3.11741
3.11799
3.11601
3.11451
3.11447
3.11663
3.11984
3.12169
3.12178
3.11927
3.11371
3.10999
3.10962
3.11055
3.11484
1
1
1
1
1
1
1
1
1
1
1
1
1
1
1
1
1
1
1
1
1
1
1
1
1
1
1
1
1
1
1
1
1
1
1
1
1
1
1
1
1
1
1
1
1
1
1
1
1
1
1.00015
1.00448
1.06792
1.39009
2.07934
2.72048
3.07026
3.10731
3.09551
3.09192
3.09284
3.09645
3.09633
3.09784
3.10412
3.10902
3.11311
3.1155
3.11572
3.11542
3.11657
3.11998
3.12327
3.12643
3.1274
3.12409
3.11663
3.11023
3.10806
3.11179
1
1
1
1
1
1
1
1
1
1
1
1
1
1
1
1
1
1
1
1
1
1
1
1
1
1
1
1
1
1
1
1
1
1
1
1
1
1
1
1
1
1
1
1
1
1
1
1
1
1
1
1.00003
1.00164
1.03389
1.24778
1.81286
2.58258
2.99505
3.10319
3.13033
3.12821
3.12231
3.11616
3.10963
3.10862
3.10866
3.10993
3.11564
3.11783
3.11692
3.11465
3.11484
3.11912
3.12639
3.12914
3.12843
3.12533
3.11703
3.10843
3.11677
1
1
1
1
1
1
1
1
1
1
1
1
1
1
1
1
1
1
1
1
1
1
1
1
1
1
1
1
1
1
1
1
1
1
1
1
1
1
1
1
1
1
1
1
1
1
1
1
1
1
1
1
1.00001
1.00067
1.01298
1.15446
1.68416
2.37819
2.85503
3.06458
3.1103
3.11277
3.11741
3.1194
3.11633
3.11252
3.11275
3.11818
3.12285
3.12187
3.11634
3.11092
3.11144
3.11461
3.12261
3.12852
3.12802
3.12342
3.11329
3.19154
1
1
1
1
1
1
1
1
1
1
1
1
1
1
1
1
1
1
1
1
1
1
1
1
1
1
1
1
1
1
1
1
1
1
1
1
1
1
1
1
1
1
1
1
1
1
1
1
1
1
1
1
1
1
1.00016
1.00779
1.08783
1.51885
2.30699
2.85204
2.97037
3.04178
3.07824
3.10346
3.10899
3.1072
3.1092
3.11682
3.12479
3.12693
3.12361
3.11325
3.10529
3.10466
3.1087
3.11959
3.12417
3.1242
3.12192
3.56616
1
1
1
1
1
1
1
1
1
1
1
1
1
1
1
1
1
1
1
1
1
1
1
1
1
1
1
1
1
1
1
1
1
1
1
1
1
1
1
1
1
1
1
1
1
1
1
1
1
1
1
1
1
1
1
1.00008
1.00314
1.0671
1.37525
2.10108
2.78381
3.07796
3.08811
3.11893
3.12404
3.11326
3.10244
3.10531
3.12011
3.13298
3.13468
3.12908
3.11244
3.10399
3.10345
3.1075
3.1144
3.12255
3.18442
4.62359
1
1
1
1
1
1
1
1
1
1
1
1
1
1
1
1
1
1
1
1
1
1
1
1
1
1
1
1
1
1
1
1
1
1
1
1
1
1
1
1
1
1
1
1
1
1
1
1
1
1
1
1
1
1
1
1
1.00003
1.00208
1.0341
1.29905
1.99129
2.59504
2.92383
3.12361
3.14442
3.12259
3.08122
3.0782
3.09804
3.1323
3.14493
3.14367
3.13212
3.11422
3.10664
3.10669
3.11127
3.20177
3.86165
6.21812
1
1
1
1
1
1
1
1
1
1
1
1
1
1
1
1
1
1
1
1
1
1
1
1
1
1
1
1
1
1
1
1
1
1
1
1
1
1
1
1
1
1
1
1
1
1
1
1
1
1
1
1
1
1
1
1
1
1.00001
1.00089
1.0234
1.21482
1.879
2.63016
3.07567
3.11406
3.09286
3.05412
3.04559
3.06496
3.10732
3.13707
3.13894
3.13293
3.11573
3.10517
3.10688
3.19129
3.99553
5.76048
7.26859
1
1
1
1
1
1
1
1
1
1
1
1
1
1
1
1
1
1
1
1
1
1
1
1
1
1
1
1
1
1
1
1
1
1
1
1
1
1
1
1
1
1
1
1
1
1
1
1
1
1
1
1
1
1
1
1
1
1
1.00001
1.00051
1.01599
1.20437
1.80288
2.5512
3.02933
3.13646
3.121
3.08586
3.08544
3.0996
3.12502
3.12761
3.11804
3.09998
3.09832
3.19997
4.00556
5.92049
7.34756
7.69687
1
1
1
1
1
1
1
1
1
1
1
1
1
1
1
1
1
1
1
1
1
1
1
1
1
1
1
1
1
1
1
1
1
1
1
1
1
1
1
1
1
1
1
1
1
1
1
1
1
1
1
1
1
1
1
1
1
1
1
1
1.00041
1.01439
1.16822
1.72119
2.48823
3.02315
3.08138
3.09787
3.12378
3.13747
3.14454
3.1373
3.11347
3.0962
3.20303
4.14567
6.08894
7.08839
7.6406
7.76575
1
1
1
1
1
1
1
1
1
1
1
1
1
1
1
1
1
1
1
1
1
1
1
1
1
1
1
1
1
1
1
1
1
1
1
1
1
1
1
1
1
1
1
1
1
1
1
1
1
1
1
1
1
1
1
1
1
1
1
1
1
1.00032
1.00988
1.1365
1.67397
2.53619
2.85465
3.0283
3.10696
3.12435
3.12823
3.12776
3.12941
3.27868
4.3162
6.19701
7.57953
7.71617
7.7263
7.74136
1
1
1
1
1
1
1
1
1
1
1
1
1
1
1
1
1
1
1
1
1
1
1
1
1
1
1
1
1
1
1
1
1
1
1
1
1
1
1
1
1
1
1
1
1
1
1
1
1
1
1
1
1
1
1
1
1
1
1
1
1
1
1.00018
1.00932
1.12284
1.68419
2.58414
2.95329
3.04223
3.03378
3.04526
3.08402
3.32486
4.48827
6.6247
7.25364
7.66407
7.77901
7.73837
7.71825
1
1
1
1
1
1
1
1
1
1
1
1
1
1
1
1
1
1
1
1
1
1
1
1
1
1
1
1
1
1
1
1
1
1
1
1
1
1
1
1
1
1
1
1
1
1
1
1
1
1
1
1
1
1
1
1
1
1
1
1
1
1
1
1.00024
1.00876
1.13493
1.71306
2.51921
3.02478
3.05355
3.10927
3.4339
4.76497
6.6951
7.83442
7.76855
7.72472
7.73788
7.73359
7.72193
1
1
1
1
1
1
1
1
1
1
1
1
1
1
1
1
1
1
1
1
1
1
1
1
1
1
1
1
1
1
1
1
1
1
1
1
1
1
1
1
1
1
1
1
1
1
1
1
1
1
1
1
1
1
1
1
1
1
1
1
1
1
1
1
1.00021
1.0094
1.14704
1.66952
2.52665
3.07579
3.88185
5.08845
6.54444
7.43396
7.80386
7.77903
7.71197
7.6876
7.70585
7.73167
1
1
1
1
1
1
1
1
1
1
1
1
1
1
1
1
1
1
1
1
1
1
1
1
1
1
1
1
1
1
1
1
1
1
1
1
1
1
1
1
1
1
1
1
1
1
1
1
1
1
1
1
1
1
1
1
1
1
1
1
1
1
1
1
1
1.00024
1.00998
1.14252
1.87454
3.57939
5.65306
7.86196
8.66637
8.31138
7.78527
7.7308
7.68093
7.66469
7.68804
7.74217
)
;

boundaryField
{
    inlet
    {
        type            fixedValue;
        value           uniform 1;
    }
    outlet
    {
        type            zeroGradient;
    }
    bottom
    {
        type            symmetryPlane;
    }
    top
    {
        type            symmetryPlane;
    }
    obstacle
    {
        type            zeroGradient;
    }
    defaultFaces
    {
        type            empty;
    }
}


// ************************************************************************* //
