/*--------------------------------*- C++ -*----------------------------------*\
| =========                 |                                                 |
| \\      /  F ield         | OpenFOAM: The Open Source CFD Toolbox           |
|  \\    /   O peration     | Version:  2206                                  |
|   \\  /    A nd           | Website:  www.openfoam.com                      |
|    \\/     M anipulation  |                                                 |
\*---------------------------------------------------------------------------*/
FoamFile
{
    version     2.0;
    format      ascii;
    arch        "LSB;label=32;scalar=64";
    class       volScalarField;
    location    "0.14";
    object      rho;
}
// * * * * * * * * * * * * * * * * * * * * * * * * * * * * * * * * * * * * * //

dimensions      [1 -3 0 0 0 0 0];

internalField   nonuniform List<scalar> 
4800
(
1.40001
1.40001
1.40001
1.40001
1.40001
1.40001
1.40001
1.40001
1.40001
1.40001
1.40001
1.40001
1.40001
1.40001
1.40001
1.40001
1.40001
1.40001
1.40001
1.40001
1.40001
1.40001
1.40001
1.40001
1.40001
1.40001
1.40001
1.40001
1.40001
1.40001
1.40001
1.40001
1.40001
1.40001
1.40001
1.40001
1.40001
1.40001
1.40001
1.40001
1.40001
1.40001
1.40001
1.40001
1.40001
1.40001
1.40001
1.40001
1.40001
1.40001
1.40001
1.40001
1.40001
1.40001
1.40001
1.40001
1.40001
1.40001
1.40001
1.40001
1.40001
1.40001
1.40001
1.40001
1.40001
1.40001
1.40001
1.40001
1.40001
1.40001
1.40001
1.40001
1.40001
1.40001
1.40001
1.40001
1.40001
1.40001
1.40001
1.40001
1.40001
1.40001
1.40001
1.40001
1.40001
1.40001
1.40001
1.40001
1.40001
1.40001
1.40001
1.40001
1.40001
1.40001
1.40001
1.40001
1.40001
1.40001
1.40001
1.40001
1.40001
1.40001
1.40001
1.40001
1.40001
1.40001
1.40001
1.40001
1.40001
1.40001
1.40001
1.40001
1.40001
1.40001
1.40001
1.40001
1.40001
1.40001
1.40001
1.40001
1.40001
1.40001
1.40001
1.40001
1.40001
1.40001
1.40001
1.40001
1.40001
1.40001
1.40001
1.40001
1.40001
1.40001
1.40001
1.40001
1.40001
1.40001
1.40001
1.40001
1.40001
1.40001
1.40001
1.40001
1.40001
1.40001
1.40001
1.40001
1.40001
1.40001
1.40001
1.40001
1.40001
1.40001
1.40001
1.40001
1.40001
1.40001
1.40001
1.40001
1.40001
1.40001
1.40001
1.40001
1.40001
1.40001
1.40001
1.40001
1.40001
1.40001
1.40001
1.40001
1.40001
1.40001
1.40001
1.40001
1.40001
1.40001
1.40001
1.40001
1.40001
1.40001
1.40001
1.40001
1.40001
1.40001
1.40001
1.40001
1.40001
1.40001
1.40001
1.40001
1.40001
1.40001
1.40001
1.40001
1.40001
1.40001
1.40001
1.40001
1.40001
1.40001
1.40001
1.40001
1.40001
1.40001
1.40001
1.40001
1.40001
1.40001
1.40001
1.40001
1.40001
1.40001
1.40001
1.40001
1.40001
1.40001
1.40001
1.40001
1.40001
1.40001
1.40001
1.40001
1.40001
1.40001
1.40001
1.40001
1.40001
1.40001
1.40001
1.40001
1.40001
1.40001
1.40001
1.40001
1.40001
1.40001
1.40001
1.40001
1.40001
1.40001
1.40001
1.40001
1.40001
1.40001
1.40001
1.40001
1.40001
1.40001
1.40001
1.40001
1.40001
1.40001
1.40001
1.40001
1.40001
1.40001
1.40001
1.40001
1.40001
1.40001
1.40001
1.40001
1.40001
1.40001
1.40001
1.40001
1.40001
1.40001
1.40001
1.40001
1.40001
1.40001
1.40001
1.40001
1.40001
1.40001
1.40001
1.40001
1.40001
1.40001
1.40001
1.40001
1.40001
1.40001
1.40001
1.40001
1.40001
1.40001
1.40001
1.40001
1.40001
1.40001
1.40001
1.40001
1.40001
1.40001
1.40001
1.40001
1.40001
1.40001
1.40001
1.40001
1.40001
1.40001
1.40001
1.40001
1.40001
1.40001
1.40001
1.40001
1.40001
1.40001
1.40001
1.40001
1.40001
1.40001
1.40001
1.40001
1.40001
1.40001
1.40001
1.40001
1.40001
1.40001
1.40001
1.40001
1.40001
1.40001
1.40001
1.40001
1.40001
1.40001
1.40001
1.40001
1.40001
1.40001
1.40001
1.40001
1.40001
1.40001
1.40001
1.40001
1.40001
1.40001
1.40001
1.40001
1.40001
1.40001
1.40001
1.40001
1.40001
1.40001
1.40001
1.40001
1.40001
1.40001
1.40001
1.40001
1.40001
1.40001
1.40001
1.40001
1.40001
1.40001
1.40001
1.40001
1.40001
1.40001
1.40001
1.40001
1.40001
1.40001
1.40001
1.40001
1.40001
1.40001
1.40001
1.40001
1.40001
1.40001
1.40001
1.40001
1.40001
1.40001
1.40001
1.40001
1.40001
1.40001
1.40001
1.40001
1.40001
1.40001
1.40001
1.40001
1.40001
1.40001
1.40001
1.40001
1.40001
1.40001
1.40001
1.40001
1.40001
1.40001
1.40001
1.40001
1.40001
1.40001
1.40001
1.40001
1.40001
1.40001
1.40001
1.40001
1.40001
1.40001
1.40001
1.40001
1.40001
1.40001
1.40001
1.40001
1.40001
1.40001
1.40001
1.40001
1.40001
1.40001
1.40001
1.40001
1.40001
1.40001
1.40001
1.40001
1.40001
1.40001
1.40001
1.40001
1.40001
1.40001
1.40001
1.40001
1.40001
1.40001
1.40001
1.40001
1.40001
1.40001
1.40001
1.40001
1.40001
1.40001
1.40001
1.40001
1.40001
1.40001
1.40001
1.40001
1.40001
1.40001
1.40001
1.40001
1.40001
1.40001
1.40001
1.40001
1.40001
1.40001
1.40001
1.40001
1.40001
1.40001
1.40001
1.40001
1.40001
1.40001
1.40001
1.40001
1.40001
1.40001
1.40001
1.40001
1.40001
1.40001
1.40001
1.40001
1.40001
1.40001
1.40001
1.40001
1.40001
1.40001
1.40001
1.40001
1.40001
1.40001
1.40001
1.40001
1.40001
1.40001
1.40001
1.40001
1.40001
1.40001
1.40001
1.40001
1.40001
1.40001
1.40001
1.40001
1.40001
1.40001
1.40001
1.40001
1.40001
1.40001
1.40001
1.40001
1.40001
1.40001
1.40001
1.40001
1.40001
1.40001
1.40001
1.40001
1.40001
1.40001
1.40001
1.40001
1.40001
1.40001
1.40001
1.40001
1.40001
1.40001
1.40001
1.40001
1.40001
1.40001
1.40001
1.40001
1.40001
1.40001
1.40001
1.40001
1.40001
1.40001
1.40001
1.40001
1.40001
1.40001
1.40001
1.40001
1.40001
1.40001
1.40001
1.40001
1.40001
1.40001
1.40001
1.40001
1.40001
1.40001
1.40001
1.40001
1.40001
1.40001
1.40001
1.40001
1.40001
1.40001
1.40001
1.40001
1.40001
1.40001
1.40001
1.40001
1.40001
1.40001
1.40001
1.40001
1.40001
1.40001
1.40001
1.40001
1.40001
1.40001
1.40001
1.40001
1.40001
1.40001
1.40001
1.40001
1.40001
1.40001
1.40001
1.40001
1.40001
1.40001
1.40001
1.40001
1.40001
1.40001
1.40001
1.40001
1.40001
1.40001
1.40001
1.40001
1.40001
1.40001
1.40001
1.40001
1.40001
1.40001
1.40001
1.40001
1.40001
1.40001
1.40001
1.40001
1.40001
1.40001
1.40001
1.40001
1.40001
1.40001
1.40001
1.40001
1.40001
1.40001
1.40001
1.40001
1.40001
1.40001
1.40001
1.40001
1.40001
1.40001
1.40001
1.40001
1.40001
1.40001
1.40001
1.40001
1.40001
1.40001
1.40001
1.40001
1.40001
1.40001
1.40001
1.40001
1.40001
1.40001
1.40001
1.40001
1.40001
1.40001
1.40001
1.40001
1.40001
1.40001
1.40001
1.40001
1.40001
1.40001
1.40001
1.40001
1.40001
1.40001
1.40001
1.40001
1.40001
1.40001
1.40001
1.40001
1.40001
1.40001
1.40001
1.40001
1.40001
1.40001
1.40001
1.40001
1.40001
1.40001
1.40001
1.40001
1.40001
1.40001
1.40001
1.40001
1.40001
1.40001
1.40001
1.40001
1.40001
1.40001
1.40001
1.40001
1.40001
1.40001
1.40001
1.40001
1.40001
1.40001
1.40001
1.40001
1.40001
1.40001
1.40001
1.40001
1.40001
1.40001
1.40001
1.40001
1.40001
1.40001
1.40001
1.40001
1.40001
1.40001
1.40001
1.40001
1.40001
1.40001
1.40001
1.40001
1.40001
1.40001
1.40001
1.40001
1.40001
1.40001
1.40001
1.40001
1.40001
1.40001
1.40001
1.40001
1.40001
1.40001
1.40001
1.40001
1.40001
1.40001
1.40001
1.40001
1.40001
1.40001
1.40001
1.40001
1.40001
1.40001
1.40001
1.40001
1.40001
1.40001
1.40001
1.40001
1.40001
1.40001
1.40001
1.40001
1.40001
1.40001
1.40001
1.40001
1.40001
1.40001
1.40001
1.40001
1.40001
1.40001
1.40001
1.40001
1.40001
1.40001
1.40001
1.40001
1.40001
1.40001
1.40001
1.40001
1.40001
1.40001
1.40001
1.40001
1.40001
1.40001
1.40001
1.40001
1.40001
1.40001
1.40001
1.40001
1.40001
1.40001
1.40001
1.40001
1.40001
1.40001
1.40001
1.40001
1.40001
1.40001
1.40001
1.40001
1.40001
1.40001
1.40001
1.40001
1.40001
1.40001
1.40001
1.40001
1.40001
1.40001
1.40001
1.40001
1.40001
1.40001
1.40001
1.40001
1.40001
1.40001
1.40001
1.40001
1.40001
1.40001
1.40001
1.40001
1.40001
1.40001
1.40001
1.40001
1.40001
1.40001
1.40001
1.40001
1.40001
1.40001
1.40001
1.40001
1.40001
1.40001
1.40001
1.40001
1.40001
1.40001
1.40001
1.40001
1.40001
1.40001
1.40001
1.40001
1.40001
1.40001
1.40001
1.40001
1.40001
1.40001
1.40001
1.40001
1.40001
1.40001
1.40001
1.40001
1.40001
1.40001
1.40001
1.40001
1.40001
1.40001
1.40001
1.40001
1.40001
1.40001
1.40001
1.40001
1.40001
1.40001
1.40001
1.40001
1.40001
1.40001
1.40001
1.40001
1.40001
1.40001
1.40001
1.40001
1.40001
1.40001
1.40001
1.40001
1.40001
1.40001
1.40001
1.40001
1.40001
1.40001
1.40001
1.40001
1.40001
1.40001
1.40001
1.40001
1.40001
1.40001
1.40001
1.40001
1.40001
1.40001
1.40001
1.40001
1.40001
1.40001
1.40001
1.40001
1.40001
1.40001
1.40001
1.40001
1.40001
1.40001
1.40001
1.40001
1.40001
1.40001
1.40001
1.40001
1.40001
1.40001
1.40001
1.40001
1.40001
1.40001
1.40001
1.40001
1.40001
1.40001
1.40001
1.40001
1.40001
1.40001
1.40001
1.40001
1.40001
1.40001
1.40001
1.40001
1.40001
1.40001
1.40001
1.40001
1.40001
1.40001
1.40001
1.40001
1.40001
1.40001
1.40001
1.40001
1.40001
1.40001
1.40001
1.40001
1.40001
1.40001
1.40001
1.40001
1.40001
1.40001
1.40001
1.40001
1.40001
1.40001
1.40001
1.40001
1.40001
1.40001
1.40001
1.40001
1.40001
1.40001
1.40001
1.40001
1.40001
1.40001
1.40001
1.40001
1.40001
1.40001
1.40001
1.40001
1.40001
1.40001
1.40001
1.40001
1.40001
1.40001
1.40001
1.40001
1.40001
1.40001
1.40001
1.40001
1.40001
1.40001
1.40001
1.40001
1.40001
1.40001
1.40001
1.40001
1.40001
1.40001
1.40001
1.40001
1.40001
1.40001
1.40001
1.40001
1.40001
1.40001
1.40001
1.40001
1.40001
1.40001
1.40001
1.40001
1.40001
1.40001
1.40001
1.40001
1.40001
1.40001
1.40001
1.40001
1.40001
1.40001
1.40001
1.40001
1.40001
1.40001
1.40001
1.40001
1.40001
1.40001
1.40001
1.40001
1.40001
1.40001
1.40001
1.40001
1.40001
1.40001
1.40001
1.40001
1.40001
1.40001
1.40001
1.40001
1.40001
1.40001
1.40001
1.40001
1.40001
1.40001
1.40001
1.40001
1.40001
1.40001
1.40001
1.40001
1.40001
1.40001
1.40001
1.40001
1.40001
1.40001
1.40001
1.40001
1.40001
1.40001
1.40001
1.40001
1.40001
1.40001
1.40001
1.40001
1.40001
1.40001
1.40001
1.40001
1.40001
1.40001
1.40001
1.40001
1.40001
1.40001
1.40001
1.40001
1.40001
1.40001
1.40001
1.40001
1.40001
1.40001
1.40001
1.40001
1.40001
1.40001
1.40001
1.40001
1.40001
1.40001
1.40001
1.40001
1.40001
1.40001
1.40001
1.40001
1.40001
1.40001
1.40001
1.40001
1.40001
1.40001
1.40001
1.40001
1.40001
1.40001
1.40001
1.40001
1.40001
1.40001
1.40001
1.40001
1.40001
1.40001
1.40001
1.40001
1.40001
1.40001
1.40001
1.40001
1.40001
1.40001
1.40001
1.40001
1.40001
1.40001
1.40001
1.40001
1.40001
1.40001
1.40001
1.40001
1.40001
1.40001
1.40001
1.40001
1.40001
1.40001
1.40001
1.40001
1.40001
1.40001
1.40001
1.40001
1.40001
1.40001
1.40001
1.40001
1.40001
1.40001
1.40001
1.40001
1.40001
1.40001
1.40001
1.40001
1.40001
1.40001
1.40001
1.40001
1.40001
1.40001
1.40001
1.40001
1.40001
1.40001
1.40001
1.40001
1.40001
1.40001
1.40001
1.40001
1.40001
1.40001
1.40001
1.40001
1.40001
1.40001
1.40001
1.40001
1.40001
1.40001
1.40001
1.40001
1.40001
1.40001
1.40001
1.40001
1.40001
1.40001
1.40001
1.40001
1.40001
1.40001
1.40001
1.40001
1.40001
1.40001
1.40001
1.40001
1.40001
1.40001
1.40001
1.40001
1.40001
1.40001
1.40001
1.40001
1.40001
1.40001
1.40001
1.40001
1.40001
1.40001
1.40001
1.40001
1.40001
1.40001
1.40001
1.40001
1.40001
1.40001
1.40001
1.40001
1.40001
1.40001
1.40001
1.40001
1.40001
1.40001
1.40001
1.40001
1.40001
1.40001
1.40001
1.40001
1.40001
1.40001
1.40001
1.40001
1.40001
1.40001
1.40001
1.40001
1.40001
1.40001
1.40001
1.40001
1.40001
1.40001
1.40001
1.40001
1.40001
1.40001
1.40001
1.40001
1.40001
1.40001
1.40001
1.40001
1.40001
1.40001
1.40001
1.40001
1.40001
1.40001
1.40001
1.40001
1.40001
1.40001
1.40001
1.40001
1.40001
1.40001
1.40001
1.40001
1.40001
1.40001
1.40001
1.40001
1.40001
1.40001
1.40001
1.40001
1.40001
1.40001
1.40001
1.40001
1.40001
1.40001
1.40001
1.40001
1.40001
1.40001
1.40001
1.40001
1.40001
1.40001
1.40001
1.40001
1.40001
1.40001
1.40001
1.40001
1.40001
1.40001
1.40001
1.40001
1.40001
1.40001
1.40001
1.40001
1.40001
1.40001
1.40001
1.40001
1.40001
1.40001
1.40001
1.40001
1.40001
1.40001
1.40001
1.40001
1.40001
1.40001
1.40001
1.40001
1.40001
1.40001
1.40001
1.40001
1.40001
1.40001
1.40001
1.40001
1.40001
1.40001
1.40001
1.40001
1.40001
1.40001
1.40001
1.40001
1.40001
1.40001
1.40001
1.40001
1.40001
1.40001
1.40001
1.40001
1.40001
1.40001
1.40001
1.40001
1.40001
1.40001
1.40001
1.40001
1.40001
1.40001
1.40001
1.40001
1.40001
1.40001
1.40001
1.40001
1.40001
1.40001
1.40001
1.40001
1.40001
1.40001
1.40001
1.40001
1.40001
1.40001
1.40001
1.40001
1.40001
1.40001
1.40001
1.40001
1.40001
1.40001
1.40001
1.40001
1.40001
1.40001
1.40001
1.40001
1.40001
1.40001
1.40001
1.40001
1.40001
1.40001
1.40001
1.40001
1.40001
1.40001
1.40001
1.40001
1.40001
1.40001
1.40001
1.40001
1.40001
1.40001
1.40001
1.40001
1.40001
1.40001
1.40001
1.40001
1.40001
1.40001
1.40001
1.40001
1.40001
1.40001
1.40001
1.40001
1.40001
1.40001
1.40001
1.40001
1.40001
1.40001
1.40001
1.40001
1.40001
1.40001
1.40001
1.40001
1.40001
1.40001
1.40001
1.40001
1.40001
1.40001
1.40001
1.40001
1.40001
1.40001
1.40001
1.40001
1.40001
1.40001
1.40001
1.40001
1.40001
1.40001
1.40001
1.40001
1.40001
1.40001
1.40001
1.40001
1.40001
1.40001
1.40001
1.40001
1.40001
1.40001
1.40001
1.40001
1.40001
1.40001
1.40001
1.40001
1.40001
1.40001
1.40001
1.40001
1.40001
1.40001
1.40001
1.40001
1.40001
1.40001
1.40001
1.40001
1.40001
1.40001
1.40001
1.40001
1.40001
1.40001
1.40001
1.40001
1.40001
1.40001
1.40001
1.40001
1.40001
1.40001
1.40001
1.40001
1.40001
1.40001
1.40001
1.40001
1.40001
1.40001
1.40001
1.40001
1.40001
1.40001
1.40001
1.40001
1.40001
1.40001
1.40001
1.40001
1.40001
1.40001
1.40001
1.40001
1.40001
1.40001
1.40001
1.40001
1.40001
1.40001
1.40001
1.40001
1.40001
1.40001
1.40001
1.40001
1.40001
1.40001
1.40001
1.40001
1.40001
1.40001
1.40001
1.40001
1.40001
1.40001
1.40001
1.40001
1.40001
1.40001
1.40001
1.40001
1.40001
1.40001
1.40001
1.40001
1.40001
1.40001
1.40001
1.40001
1.40001
1.40001
1.40001
1.40001
1.40001
1.40001
1.40001
1.40001
1.40001
1.40001
1.40001
1.40001
1.66091
2.0363
2.40189
2.80681
3.15915
3.38975
3.66814
3.80981
3.87859
3.84319
3.72775
3.55441
3.34938
3.19089
3.10297
3.0667
3.04471
3.04495
3.0579
3.08077
3.09626
3.10463
3.11133
3.12049
3.13495
3.14535
3.14678
3.14706
3.14558
3.14129
3.13561
3.12972
3.12711
3.12645
3.12743
3.12937
3.12998
3.13027
3.13044
3.13065
3.13136
3.13241
3.1342
3.13782
3.14308
3.1455
3.1451
3.14377
3.14104
3.13677
3.13395
3.1336
3.13357
3.13413
3.13623
3.1383
3.1389
3.13899
3.13853
3.13662
3.13475
3.13395
3.1336
3.13332
3.13323
3.13327
3.13322
3.13295
3.13227
3.1312
3.12942
3.12629
3.12125
3.11423
3.10433
3.09118
3.07735
3.065
3.05407
3.03832
1.40269
1.42494
1.48691
1.57122
1.74704
1.97808
2.25187
2.55057
2.84403
3.0731
3.1592
3.27096
3.3048
3.28242
3.23756
3.21044
3.18898
3.15216
3.12503
3.09983
3.08072
3.08138
3.08903
3.1008
3.11754
3.12939
3.13124
3.13122
3.13118
3.12939
3.12673
3.12642
3.12839
3.13299
3.13564
3.13612
3.13614
3.13481
3.13119
3.12801
3.12747
3.12796
3.12906
3.13111
3.13388
3.1353
3.13533
3.1349
3.13351
3.1313
3.13032
3.13028
3.13056
3.13209
3.13502
3.13674
3.13704
3.13717
3.13677
3.13499
3.13332
3.13289
3.13269
3.13262
3.13335
3.13402
3.13407
3.13385
3.13328
3.13193
3.12971
3.12622
3.12081
3.11304
3.10226
3.08897
3.07558
3.06354
3.05291
3.03724
1.4
1.40001
1.40018
1.40079
1.40457
1.42078
1.46478
1.5906
1.80567
2.19055
2.64893
3.03588
3.23699
3.3439
3.36803
3.35079
3.31117
3.24815
3.15036
3.08197
3.05991
3.06216
3.06913
3.08276
3.10045
3.10275
3.10104
3.09855
3.10006
3.10425
3.10925
3.11441
3.12053
3.12873
3.13249
3.13293
3.13278
3.13076
3.12628
3.12242
3.12133
3.12149
3.12194
3.12346
3.1251
3.12535
3.1252
3.12481
3.12369
3.12208
3.12165
3.12188
3.12274
3.12493
3.12778
3.12891
3.1291
3.12932
3.1293
3.12853
3.12823
3.12843
3.12864
3.12895
3.13003
3.13115
3.13147
3.13158
3.1308
3.12939
3.12742
3.12403
3.1185
3.11057
3.0996
3.08626
3.07313
3.0614
3.05152
3.03666
1.4
1.4
1.4
1.4
1.40001
1.40001
1.40007
1.40101
1.40633
1.44109
1.59183
1.87982
2.35179
2.74444
3.09831
3.18918
3.18486
3.19889
3.20263
3.17023
3.13229
3.11537
3.09571
3.08866
3.07793
3.06356
3.06132
3.06356
3.06974
3.07779
3.0849
3.09236
3.10199
3.11178
3.11705
3.11935
3.12005
3.11896
3.11497
3.11045
3.10959
3.10998
3.11155
3.11441
3.11579
3.11615
3.11578
3.11512
3.11454
3.11381
3.11371
3.11417
3.11553
3.11783
3.1196
3.11991
3.11998
3.11996
3.11934
3.11828
3.11837
3.11883
3.11929
3.12013
3.12166
3.12293
3.12347
3.12373
3.12308
3.1217
3.12018
3.11733
3.11228
3.10466
3.09376
3.08016
3.0672
3.05639
3.04742
3.0332
1.40001
1.40001
1.40001
1.4
1.4
1.4
1.4
1.4
1.40001
1.40001
1.40111
1.41082
1.49117
1.71095
2.08915
2.55367
2.87882
3.14599
3.22728
3.22094
3.20388
3.18353
3.13646
3.0905
3.07433
3.05854
3.05488
3.05536
3.05771
3.06298
3.06717
3.07156
3.07887
3.08613
3.09039
3.09372
3.09542
3.09539
3.0938
3.09231
3.09315
3.09596
3.10132
3.10543
3.10648
3.10708
3.10678
3.10628
3.1069
3.1074
3.10758
3.10809
3.10967
3.11183
3.11246
3.11259
3.11264
3.11226
3.11081
3.10972
3.10993
3.11019
3.11048
3.11149
3.11335
3.1144
3.1149
3.11511
3.11412
3.11222
3.1107
3.10789
3.10262
3.09466
3.08362
3.07037
3.05786
3.0471
3.03815
3.02592
1.40001
1.40001
1.40001
1.40001
1.40001
1.40001
1.40001
1.4
1.4
1.4
1.40001
1.4
1.40023
1.40417
1.43089
1.58644
1.88398
2.32041
2.69366
2.94749
3.11517
3.11494
3.12432
3.13595
3.13272
3.11337
3.09891
3.08655
3.07542
3.06826
3.0622
3.06249
3.0667
3.07479
3.08093
3.08258
3.08163
3.08073
3.08006
3.08064
3.08203
3.08455
3.08933
3.09378
3.09528
3.09618
3.09658
3.09674
3.09762
3.09876
3.0998
3.10124
3.10333
3.105
3.10577
3.10619
3.10628
3.10545
3.10343
3.10282
3.10302
3.10319
3.10354
3.10482
3.10666
3.10734
3.10759
3.10737
3.10532
3.10335
3.10197
3.09912
3.09368
3.0854
3.07403
3.06119
3.04898
3.03802
3.02855
3.01609
1.40001
1.40001
1.40001
1.40001
1.40001
1.40001
1.40001
1.40001
1.40001
1.40001
1.40001
1.4
1.4
1.4
1.40001
1.40141
1.41483
1.48131
1.73435
2.09809
2.56614
2.82482
3.03795
3.14987
3.15195
3.15007
3.14007
3.119
3.09076
3.08126
3.07635
3.07668
3.08185
3.08572
3.08382
3.07973
3.07699
3.07744
3.08011
3.08172
3.08236
3.08312
3.08562
3.08848
3.08858
3.08874
3.0885
3.08834
3.08861
3.08904
3.09026
3.09292
3.09587
3.09749
3.09839
3.09869
3.0986
3.09765
3.09619
3.09602
3.09628
3.09698
3.09831
3.10043
3.10211
3.10241
3.10231
3.10111
3.09845
3.09712
3.0957
3.09254
3.08681
3.07811
3.06647
3.05405
3.04158
3.03041
3.02122
3.00813
1.40001
1.40001
1.40001
1.40001
1.40001
1.40001
1.40001
1.40001
1.40001
1.40001
1.40001
1.40001
1.40001
1.4
1.4
1.40001
1.4
1.40026
1.40691
1.44226
1.59401
1.94956
2.3631
2.76014
2.91379
3.03296
3.06868
3.07949
3.09773
3.10315
3.10198
3.09671
3.09661
3.09688
3.09659
3.09444
3.09079
3.08982
3.09209
3.09555
3.09717
3.09717
3.09631
3.09367
3.09035
3.08808
3.08658
3.08529
3.08463
3.0846
3.08562
3.08822
3.09174
3.0934
3.09393
3.09416
3.09393
3.09344
3.09325
3.09338
3.09406
3.0956
3.0979
3.10028
3.10114
3.10106
3.10042
3.0984
3.09559
3.09411
3.09227
3.08872
3.08282
3.07383
3.06237
3.05037
3.03732
3.02626
3.01668
3.00213
1.40001
1.40001
1.40001
1.40001
1.40001
1.40001
1.40001
1.40001
1.40001
1.40001
1.40001
1.40001
1.40001
1.40001
1.40001
1.40001
1.4
1.4
1.4
1.40007
1.40203
1.4271
1.51161
1.78587
2.19331
2.68048
2.88909
2.98758
3.05862
3.08741
3.09311
3.08461
3.07267
3.07707
3.08922
3.09072
3.09043
3.09103
3.09435
3.10098
3.10712
3.11075
3.11069
3.10807
3.10384
3.09977
3.09779
3.09626
3.09391
3.09232
3.09153
3.09161
3.0941
3.0957
3.09583
3.09538
3.09391
3.09272
3.0923
3.09225
3.09283
3.09483
3.09779
3.09985
3.1001
3.09975
3.09885
3.09676
3.09408
3.09211
3.08986
3.08623
3.08055
3.07164
3.06082
3.0493
3.03609
3.02479
3.01484
2.99936
1.40001
1.40001
1.40001
1.40001
1.40001
1.40001
1.40001
1.40001
1.40001
1.40001
1.40001
1.40001
1.40001
1.40001
1.40001
1.40001
1.40001
1.40001
1.4
1.4
1.4
1.40003
1.40068
1.41211
1.47729
1.66767
2.07058
2.48881
2.88128
2.98753
3.0383
3.07751
3.06025
3.06542
3.07285
3.07441
3.07741
3.07817
3.07943
3.08514
3.09482
3.1052
3.10982
3.10919
3.10741
3.10575
3.10519
3.10481
3.104
3.10339
3.10307
3.10306
3.10352
3.10372
3.10356
3.10217
3.09886
3.09545
3.09393
3.09364
3.09387
3.09563
3.09843
3.09941
3.09896
3.09814
3.09682
3.09462
3.09216
3.0904
3.0881
3.08431
3.07862
3.06966
3.05914
3.04789
3.03495
3.02363
3.0139
2.9988
1.40001
1.40001
1.40001
1.40001
1.40001
1.40001
1.40001
1.40001
1.40001
1.40001
1.40001
1.40001
1.40001
1.40001
1.40001
1.40001
1.40001
1.40001
1.40001
1.40001
1.4
1.4
1.4
1.40001
1.40039
1.40491
1.45731
1.59976
1.92645
2.3627
2.77828
3.01804
3.06106
3.10369
3.10218
3.08622
3.08511
3.08068
3.07398
3.07489
3.08001
3.08906
3.09747
3.09851
3.0978
3.1001
3.1024
3.10425
3.10592
3.10661
3.10723
3.1084
3.10894
3.10919
3.10943
3.10893
3.10697
3.10395
3.10108
3.0997
3.09931
3.09965
3.1007
3.1004
3.09958
3.09845
3.09682
3.09466
3.09291
3.0913
3.08883
3.08439
3.07784
3.06854
3.05751
3.04511
3.0323
3.0219
3.0129
2.99834
1.40001
1.40001
1.40001
1.40001
1.40001
1.40001
1.40001
1.40001
1.40001
1.40001
1.40001
1.40001
1.40001
1.40001
1.40001
1.40001
1.40001
1.40001
1.40001
1.40001
1.40001
1.40001
1.4
1.4
1.40001
1.4
1.40026
1.40289
1.42878
1.56222
1.84835
2.29199
2.68674
2.97963
3.0844
3.11191
3.12684
3.11859
3.10405
3.10069
3.09727
3.09543
3.09732
3.09723
3.09599
3.09827
3.1005
3.10094
3.1019
3.10403
3.1057
3.10768
3.10868
3.1095
3.11103
3.11134
3.10979
3.10779
3.10605
3.10523
3.10509
3.10536
3.10537
3.10451
3.10321
3.10187
3.10058
3.09923
3.09763
3.09536
3.09158
3.08611
3.07908
3.06933
3.05797
3.04364
3.0298
3.01999
3.01119
2.99736
1.40001
1.40001
1.40001
1.40001
1.40001
1.40001
1.40001
1.40001
1.40001
1.40001
1.40001
1.40001
1.40001
1.40001
1.40001
1.40001
1.40001
1.40001
1.40001
1.40001
1.40001
1.40001
1.40001
1.40001
1.40001
1.4
1.4
1.4
1.40008
1.40227
1.41926
1.54129
1.80636
2.21559
2.60688
2.93739
3.07204
3.10287
3.12085
3.13935
3.14292
3.13843
3.13141
3.12084
3.11583
3.11427
3.11225
3.10907
3.10727
3.10759
3.10963
3.11022
3.10997
3.10978
3.11034
3.11067
3.10992
3.10932
3.10869
3.10851
3.10887
3.10925
3.109
3.10805
3.10676
3.1052
3.10379
3.103
3.10219
3.10068
3.09738
3.09179
3.084
3.07311
3.05998
3.04435
3.02892
3.01855
3.00976
2.99731
1.40001
1.40001
1.40001
1.40001
1.40001
1.40001
1.40001
1.40001
1.40001
1.40001
1.40001
1.40001
1.40001
1.40001
1.40001
1.40001
1.40001
1.40001
1.40001
1.40001
1.40001
1.40001
1.40001
1.40001
1.40001
1.40001
1.40001
1.4
1.4
1.4
1.40004
1.402
1.41577
1.50158
1.7732
2.20056
2.58158
2.86699
3.03053
3.09952
3.13881
3.15021
3.15049
3.14159
3.13729
3.13563
3.13388
3.13179
3.12916
3.12728
3.12554
3.12263
3.11926
3.11718
3.11515
3.11367
3.1135
3.11321
3.11242
3.11253
3.11329
3.11336
3.11292
3.11187
3.11019
3.1078
3.10592
3.10502
3.10478
3.10398
3.10114
3.09601
3.08861
3.07794
3.06466
3.04735
3.03117
3.01996
3.01002
2.99993
1.40001
1.40001
1.40001
1.40001
1.40001
1.40001
1.40001
1.40001
1.40001
1.40001
1.40001
1.40001
1.40001
1.40001
1.40001
1.40001
1.40001
1.40001
1.40001
1.40001
1.40001
1.40001
1.40001
1.40001
1.40001
1.40001
1.40001
1.40001
1.40001
1.4
1.4
1.4
1.40003
1.4012
1.4153
1.48601
1.76565
2.21696
2.63513
2.8594
3.00708
3.08103
3.10608
3.11006
3.11732
3.12615
3.1304
3.13354
3.13517
3.13581
3.13515
3.13271
3.12977
3.12738
3.12477
3.12236
3.12194
3.12162
3.12101
3.12103
3.12132
3.12121
3.12068
3.11971
3.11778
3.11436
3.11068
3.10856
3.10779
3.10683
3.10404
3.09903
3.09189
3.08163
3.0687
3.05126
3.03393
3.0217
3.01087
3.00282
1.40001
1.40001
1.40001
1.40001
1.40001
1.40001
1.40001
1.40001
1.40001
1.40001
1.40001
1.40001
1.40001
1.40001
1.40001
1.40001
1.40001
1.40001
1.40001
1.40001
1.40001
1.40001
1.40001
1.40001
1.40001
1.40001
1.40001
1.40001
1.40001
1.40001
1.40001
1.4
1.4
1.4
1.40003
1.40093
1.41837
1.49736
1.76591
2.21835
2.71677
2.92594
3.01338
3.05654
3.06537
3.08536
3.09563
3.10439
3.11345
3.12075
3.12639
3.12937
3.12907
3.12769
3.12649
3.1255
3.12526
3.12531
3.12522
3.12642
3.1274
3.12735
3.12714
3.1268
3.12581
3.12342
3.1199
3.11612
3.1138
3.11173
3.10823
3.10272
3.0951
3.08467
3.07171
3.05501
3.03707
3.02413
3.01338
3.00582
1.40001
1.40001
1.40001
1.40001
1.40001
1.40001
1.40001
1.40001
1.40001
1.40001
1.40001
1.40001
1.40001
1.40001
1.40001
1.40001
1.40001
1.40001
1.40001
1.40001
1.40001
1.40001
1.40001
1.40001
1.40001
1.40001
1.40001
1.40001
1.40001
1.40001
1.40001
1.40001
1.40001
1.4
1.4
1.4
1.40006
1.40114
1.41906
1.5122
1.79516
2.25829
2.75741
3.01613
3.06017
3.08956
3.09317
3.09965
3.1058
3.11006
3.11471
3.11851
3.11913
3.11817
3.11734
3.11775
3.11921
3.12113
3.12436
3.12713
3.12813
3.12822
3.1282
3.12796
3.12737
3.12622
3.1245
3.12277
3.12065
3.11792
3.11368
3.10747
3.09908
3.08789
3.07417
3.05788
3.04043
3.02703
3.01707
3.00895
1.40001
1.40001
1.40001
1.40001
1.40001
1.40001
1.40001
1.40001
1.40001
1.40001
1.40001
1.40001
1.40001
1.40001
1.40001
1.40001
1.40001
1.40001
1.40001
1.40001
1.40001
1.40001
1.40001
1.40001
1.40001
1.40001
1.40001
1.40001
1.40001
1.40001
1.40001
1.40001
1.40001
1.40001
1.40001
1.4
1.4
1.4
1.40008
1.40163
1.42209
1.54351
1.87349
2.36713
2.79071
3.02841
3.11776
3.12552
3.14109
3.14162
3.13552
3.12889
3.12542
3.1226
3.11904
3.11819
3.11947
3.12069
3.12232
3.12488
3.12583
3.12562
3.12493
3.12334
3.1225
3.12323
3.12379
3.12405
3.12337
3.1215
3.11769
3.11154
3.10275
3.09076
3.07606
3.05964
3.04341
3.03071
3.02163
3.01246
1.40001
1.40001
1.40001
1.40001
1.40001
1.40001
1.40001
1.40001
1.40001
1.40001
1.40001
1.40001
1.40001
1.40001
1.40001
1.40001
1.40001
1.40001
1.40001
1.40001
1.40001
1.40001
1.40001
1.40001
1.40001
1.40001
1.40001
1.40001
1.40001
1.40001
1.40001
1.40001
1.40001
1.40001
1.40001
1.40001
1.40001
1.4
1.4
1.4
1.40012
1.40291
1.4324
1.61315
1.97994
2.45575
2.85337
3.04411
3.12354
3.15213
3.15343
3.14676
3.14188
3.13893
3.13351
3.12839
3.12904
3.13077
3.13198
3.1326
3.13192
3.13009
3.12696
3.12323
3.12145
3.1215
3.12166
3.12252
3.12352
3.12248
3.11912
3.11337
3.10493
3.09281
3.07717
3.06011
3.04516
3.03376
3.02617
3.01647
1.40001
1.40001
1.40001
1.40001
1.40001
1.40001
1.40001
1.40001
1.40001
1.40001
1.40001
1.40001
1.40001
1.40001
1.40001
1.40001
1.40001
1.40001
1.40001
1.40001
1.40001
1.40001
1.40001
1.40001
1.40001
1.40001
1.40001
1.40001
1.40001
1.40001
1.40001
1.40001
1.40001
1.40001
1.40001
1.40001
1.40001
1.40001
1.40001
1.4
1.4
1.40001
1.40025
1.40663
1.45108
1.68889
2.16758
2.62137
2.88638
3.03699
3.10777
3.12439
3.12766
3.1303
3.12929
3.1279
3.13004
3.1342
3.1377
3.14042
3.14072
3.13995
3.13757
3.13118
3.12508
3.12329
3.12265
3.12266
3.12428
3.12393
3.12111
3.11562
3.10713
3.09492
3.07858
3.06067
3.04627
3.03572
3.02943
3.02018
1.40001
1.40001
1.40001
1.40001
1.40001
1.40001
1.40001
1.40001
1.40001
1.40001
1.40001
1.40001
1.40001
1.40001
1.40001
1.40001
1.40001
1.40001
1.40001
1.40001
1.40001
1.40001
1.40001
1.40001
1.40001
1.40001
1.40001
1.40001
1.40001
1.40001
1.40001
1.40001
1.40001
1.40001
1.40001
1.40001
1.40001
1.40001
1.40001
1.40001
1.4
1.40001
1.4
1.40002
1.40059
1.41439
1.49601
1.8221
2.33595
2.83668
2.98614
3.05159
3.07986
3.1001
3.10207
3.10176
3.10452
3.11052
3.11965
3.12988
3.13728
3.14002
3.13998
3.13617
3.12939
3.12636
3.12589
3.12584
3.1271
3.12679
3.12401
3.1186
3.10987
3.09746
3.08069
3.0623
3.04799
3.03793
3.03202
3.02331
1.40001
1.40001
1.40001
1.40001
1.40001
1.40001
1.40001
1.40001
1.40001
1.40001
1.40001
1.40001
1.40001
1.40001
1.40001
1.40001
1.40001
1.40001
1.40001
1.40001
1.40001
1.40001
1.40001
1.40001
1.40001
1.40001
1.40001
1.40001
1.40001
1.40001
1.40001
1.40001
1.40001
1.40001
1.40001
1.40001
1.40001
1.40001
1.40001
1.40001
1.40001
1.40001
1.4
1.4
1.4
1.40007
1.40177
1.43408
1.58181
1.99972
2.56034
2.9329
3.09156
3.11976
3.12055
3.11095
3.106
3.10251
3.10326
3.11124
3.11892
3.12402
3.12636
3.1272
3.12622
3.12575
3.12621
3.12761
3.1294
3.12879
3.1257
3.11991
3.11095
3.09861
3.08259
3.06441
3.04889
3.03893
3.03364
3.02519
1.40001
1.40001
1.40001
1.40001
1.40001
1.40001
1.40001
1.40001
1.40001
1.40001
1.40001
1.40001
1.40001
1.40001
1.40001
1.40001
1.40001
1.40001
1.40001
1.40001
1.40001
1.40001
1.40001
1.40001
1.40001
1.40001
1.40001
1.40001
1.40001
1.40001
1.40001
1.40001
1.40001
1.40001
1.40001
1.40001
1.40001
1.40001
1.40001
1.40001
1.40001
1.40001
1.40001
1.40001
1.4
1.4
1.40001
1.40034
1.40603
1.47201
1.74508
2.25038
2.73943
3.03127
3.1287
3.14033
3.15253
3.14748
3.1346
3.12569
3.12299
3.12231
3.12162
3.12101
3.1206
3.12144
3.12334
3.12611
3.12925
3.12878
3.12571
3.11981
3.11083
3.09831
3.08295
3.06625
3.04997
3.0371
3.0317
3.02485
1.40001
1.40001
1.40001
1.40001
1.40001
1.40001
1.40001
1.40001
1.40001
1.40001
1.40001
1.40001
1.40001
1.40001
1.40001
1.40001
1.40001
1.40001
1.40001
1.40001
1.40001
1.40001
1.40001
1.40001
1.40001
1.40001
1.40001
1.40001
1.40001
1.40001
1.40001
1.40001
1.40001
1.40001
1.40001
1.40001
1.40001
1.40001
1.40001
1.40001
1.40001
1.40001
1.40001
1.40001
1.40001
1.4
1.4
1.4
1.40002
1.40136
1.42062
1.57805
1.97879
2.52601
2.8836
3.04369
3.12684
3.15627
3.1592
3.15398
3.14228
3.13362
3.13061
3.12769
3.12544
3.1243
3.12441
3.12626
3.12893
3.1288
3.12562
3.11894
3.10925
3.09685
3.08205
3.06686
3.05157
3.0363
3.02804
3.02244
1.40001
1.40001
1.40001
1.40001
1.40001
1.40001
1.40001
1.40001
1.40001
1.40001
1.40001
1.40001
1.40001
1.40001
1.40001
1.40001
1.40001
1.40001
1.40001
1.40001
1.40001
1.40001
1.40001
1.40001
1.40001
1.40001
1.40001
1.40001
1.40001
1.40001
1.40001
1.40001
1.40001
1.40001
1.40001
1.40001
1.40001
1.40001
1.40001
1.40001
1.40001
1.40001
1.40001
1.40001
1.40001
1.40001
1.40001
1.4
1.4
1.40001
1.40021
1.40649
1.46373
1.76004
2.35756
2.75657
2.96075
3.09098
3.1267
3.12869
3.12691
3.12855
3.13104
3.13199
3.13114
3.12945
3.12791
3.12866
3.12993
3.12926
3.1256
3.11804
3.10737
3.09421
3.08008
3.06657
3.05366
3.03844
3.02618
3.01979
1.40001
1.40001
1.40001
1.40001
1.40001
1.40001
1.40001
1.40001
1.40001
1.40001
1.40001
1.40001
1.40001
1.40001
1.40001
1.40001
1.40001
1.40001
1.40001
1.40001
1.40001
1.40001
1.40001
1.40001
1.40001
1.40001
1.40001
1.40001
1.40001
1.40001
1.40001
1.40001
1.40001
1.40001
1.40001
1.40001
1.40001
1.40001
1.40001
1.40001
1.40001
1.40001
1.40001
1.40001
1.40001
1.40001
1.40001
1.40001
1.40001
1.40001
1.4
1.40003
1.40143
1.42763
1.60808
2.0741
2.6443
2.98721
3.06569
3.07032
3.07653
3.09574
3.11657
3.1233
3.12477
3.12571
3.12674
3.12808
3.12926
3.1283
3.12407
3.11648
3.10568
3.09117
3.07744
3.06572
3.05502
3.04332
3.0296
3.01863
1.40001
1.40001
1.40001
1.40001
1.40001
1.40001
1.40001
1.40001
1.40001
1.40001
1.40001