/*--------------------------------*- C++ -*----------------------------------*\
| =========                 |                                                 |
| \\      /  F ield         | OpenFOAM: The Open Source CFD Toolbox           |
|  \\    /   O peration     | Version:  2206                                  |
|   \\  /    A nd           | Website:  www.openfoam.com                      |
|    \\/     M anipulation  |                                                 |
\*---------------------------------------------------------------------------*/
FoamFile
{
    version     2.0;
    format      ascii;
    arch        "LSB;label=32;scalar=64";
    class       volScalarField;
    location    "0.04";
    object      T;
}
// * * * * * * * * * * * * * * * * * * * * * * * * * * * * * * * * * * * * * //

dimensions      [0 0 0 1 0 0 0];

internalField   nonuniform List<scalar> 
75
(
1
1
1
1
1
1
1
1
1
1
1
1
1
1
1
1
1
1
1
1
1
1
1
1
1
1.07372
1.17699
1.29125
1.40712
1.51232
1.59873
1.66892
1.72656
1.77588
1.82886
0.999668
1.00097
1.01222
1.04639
1.10499
1.17245
1.23319
1.28766
1.33428
1.40665
0.999994
0.999984
0.999877
1.00026
1.00002
1.00364
1.00606
1.01756
1.02685
1.08125
1
0.999999
0.999989
0.999991
0.999997
1.00001
0.999984
1.00008
0.99991
1.0012
1
1
1
0.999999
0.999999
1
0.999999
0.999999
0.99999
0.999997
)
;

boundaryField
{
    inlet
    {
        type            fixedValue;
        value           uniform 1;
    }
    outlet
    {
        type            zeroGradient;
    }
    bottom
    {
        type            symmetryPlane;
    }
    top
    {
        type            symmetryPlane;
    }
    obstacle
    {
        type            zeroGradient;
    }
    defaultFaces
    {
        type            empty;
    }
}


// ************************************************************************* //
