/*--------------------------------*- C++ -*----------------------------------*\
| =========                 |                                                 |
| \\      /  F ield         | OpenFOAM: The Open Source CFD Toolbox           |
|  \\    /   O peration     | Version:  2206                                  |
|   \\  /    A nd           | Website:  www.openfoam.com                      |
|    \\/     M anipulation  |                                                 |
\*---------------------------------------------------------------------------*/
FoamFile
{
    version     2.0;
    format      ascii;
    arch        "LSB;label=32;scalar=64";
    class       volScalarField;
    location    "0.18";
    object      p;
}
// * * * * * * * * * * * * * * * * * * * * * * * * * * * * * * * * * * * * * //

dimensions      [1 -1 -2 0 0 0 0];

internalField   nonuniform List<scalar> 
75
(
1
1
1
1
1
1
1
1
1
1
1
1
1
1
1
1
1
1
1
1
1
1
1
1
1
1.27738
1.74367
2.3239
3.01121
3.68471
4.36777
4.89171
4.84421
4.50143
3.811
1.006
1.03398
1.12605
1.31
1.66333
2.13683
2.80038
3.28515
3.60107
3.63602
1.00002
0.999902
1.00044
1.00501
1.03825
1.15809
1.57112
2.60483
3.39619
3.8761
1
0.999959
0.999953
0.999985
0.999989
1.00118
1.03893
1.3485
2.28392
3.94205
1
0.999997
0.999984
0.999983
1.00002
0.999984
1.00009
1.01655
1.40343
4.33621
)
;

boundaryField
{
    inlet
    {
        type            fixedValue;
        value           uniform 1;
    }
    outlet
    {
        type            zeroGradient;
    }
    bottom
    {
        type            symmetryPlane;
    }
    top
    {
        type            symmetryPlane;
    }
    obstacle
    {
        type            zeroGradient;
    }
    defaultFaces
    {
        type            empty;
    }
}


// ************************************************************************* //
