/*--------------------------------*- C++ -*----------------------------------*\
| =========                 |                                                 |
| \\      /  F ield         | OpenFOAM: The Open Source CFD Toolbox           |
|  \\    /   O peration     | Version:  2206                                  |
|   \\  /    A nd           | Website:  www.openfoam.com                      |
|    \\/     M anipulation  |                                                 |
\*---------------------------------------------------------------------------*/
FoamFile
{
    version     2.0;
    format      ascii;
    arch        "LSB;label=32;scalar=64";
    class       volVectorField;
    location    "0.08";
    object      U;
}
// * * * * * * * * * * * * * * * * * * * * * * * * * * * * * * * * * * * * * //

dimensions      [0 1 -1 0 0 0 0];

internalField   nonuniform List<vector> 
75
(
(4.0101 -5.29133e-15 0)
(4.0101 -5.26049e-15 0)
(4.0101 1.90987e-14 0)
(4.0101 1.29404e-13 0)
(4.0101 3.75281e-13 0)
(4.0101 2.20871e-17 0)
(4.0101 -4.79958e-15 0)
(4.0101 2.55711e-15 0)
(4.0101 -5.51216e-14 0)
(4.0101 5.74736e-14 0)
(4.0101 4.38784e-15 0)
(4.0101 3.76232e-15 0)
(4.0101 -2.25006e-14 0)
(4.0101 -1.28142e-13 0)
(4.0101 -4.38594e-13 0)
(4.0101 -4.69123e-15 0)
(4.0101 -3.77565e-16 0)
(4.0101 1.48651e-15 0)
(4.0101 8.79052e-14 0)
(4.0101 7.3208e-14 0)
(4.0101 -5.62347e-15 0)
(4.0101 -5.46136e-15 0)
(4.0101 -7.08456e-16 0)
(4.0101 2.31282e-14 0)
(4.0101 1.02136e-13 0)
(3.96551 0.0126358 0)
(3.90156 0.0644785 0)
(3.83517 0.144059 0)
(3.76099 0.259515 0)
(3.70204 0.348135 0)
(3.62149 0.498484 0)
(3.60803 0.605042 0)
(3.58242 0.726484 0)
(3.53833 0.834796 0)
(3.5558 0.955918 0)
(4.00885 0.00165051 0)
(4.0005 0.0164692 0)
(3.97572 0.0664843 0)
(3.92284 0.180354 0)
(3.84451 0.363578 0)
(3.72765 0.624538 0)
(3.62681 0.899278 0)
(3.53614 1.12299 0)
(3.45415 1.2449 0)
(3.49906 1.15575 0)
(4.01011 1.57104e-06 0)
(4.01012 -9.09497e-05 0)
(4.01 0.000104139 0)
(4.00948 0.00144143 0)
(4.0061 0.00945645 0)
(3.98963 0.0524686 0)
(3.95743 0.159625 0)
(3.88632 0.411714 0)
(3.8812 0.676778 0)
(3.75291 0.937201 0)
(4.0101 -1.66895e-06 0)
(4.0101 -5.65674e-06 0)
(4.0101 -4.66379e-06 0)
(4.0101 1.71835e-06 0)
(4.01014 5.4176e-06 0)
(4.01006 -1.32716e-05 0)
(4.00868 0.00437807 0)
(3.99482 0.0525523 0)
(3.98134 0.225549 0)
(3.88536 0.741927 0)
(4.0101 -1.40104e-08 0)
(4.0101 -3.90897e-07 0)
(4.0101 -8.14639e-07 0)
(4.0101 -4.62506e-07 0)
(4.01011 -6.9294e-06 0)
(4.01011 -1.33697e-05 0)
(4.01012 -2.35653e-05 0)
(4.00992 0.000134928 0)
(4.00678 0.00784818 0)
(3.94582 0.195083 0)
)
;

boundaryField
{
    inlet
    {
        type            fixedValue;
        value           uniform (4.0101 0 0);
    }
    outlet
    {
        type            zeroGradient;
    }
    bottom
    {
        type            symmetryPlane;
    }
    top
    {
        type            symmetryPlane;
    }
    obstacle
    {
        type            slip;
    }
    defaultFaces
    {
        type            empty;
    }
}


// ************************************************************************* //
