/*--------------------------------*- C++ -*----------------------------------*\
| =========                 |                                                 |
| \\      /  F ield         | OpenFOAM: The Open Source CFD Toolbox           |
|  \\    /   O peration     | Version:  2206                                  |
|   \\  /    A nd           | Website:  www.openfoam.com                      |
|    \\/     M anipulation  |                                                 |
\*---------------------------------------------------------------------------*/
FoamFile
{
    version     2.0;
    format      ascii;
    arch        "LSB;label=32;scalar=64";
    class       volVectorField;
    location    "0.14";
    object      U;
}
// * * * * * * * * * * * * * * * * * * * * * * * * * * * * * * * * * * * * * //

dimensions      [0 1 -1 0 0 0 0];

internalField   nonuniform List<vector> 
75
(
(6.9596 3.20389e-15 0)
(6.9596 3.21305e-15 0)
(6.9596 6.41569e-15 0)
(6.9596 6.39277e-15 0)
(6.9596 6.2515e-15 0)
(6.9596 2.37541e-16 0)
(6.9596 3.6598e-15 0)
(6.9596 3.19388e-15 0)
(6.9596 2.8134e-15 0)
(6.9596 2.18057e-15 0)
(6.9596 -8.52397e-15 0)
(6.9596 -7.25625e-15 0)
(6.9596 -9.50122e-15 0)
(6.9596 -8.99114e-15 0)
(6.9596 -4.54803e-15 0)
(6.9596 4.15238e-15 0)
(6.9596 2.2058e-15 0)
(6.9596 -2.83549e-15 0)
(6.9596 -9.39329e-16 0)
(6.9596 3.2843e-15 0)
(6.9596 6.50779e-15 0)
(6.9596 6.45278e-15 0)
(6.9596 2.94801e-15 0)
(6.9596 5.94353e-15 0)
(6.9596 6.1544e-15 0)
(6.94035 -0.0310989 0)
(6.90236 0.0932494 0)
(6.86711 0.0478214 0)
(6.80766 0.244408 0)
(6.77051 0.248701 0)
(6.69106 0.490005 0)
(6.65604 0.532108 0)
(6.55353 0.796111 0)
(6.52292 0.865639 0)
(6.39259 1.15681 0)
(6.9596 5.25931e-06 0)
(6.9596 9.43308e-06 0)
(6.96045 -0.00276987 0)
(6.95946 0.000396386 0)
(6.97349 -0.0362201 0)
(6.91078 0.132335 0)
(6.89939 0.159022 0)
(6.71801 0.624619 0)
(6.69808 0.804651 0)
(6.34925 1.66141 0)
(6.9596 -3.85178e-10 0)
(6.9596 -1.34409e-09 0)
(6.95959 5.06438e-06 0)
(6.9596 -6.61092e-07 0)
(6.95959 2.28656e-06 0)
(6.9596 -5.00695e-06 0)
(6.96032 -0.00191116 0)
(6.95887 0.00202986 0)
(6.96178 -0.00373325 0)
(6.86206 0.343754 0)
(6.9596 -4.14265e-12 0)
(6.9596 -1.01486e-11 0)
(6.9596 1.98261e-07 0)
(6.9596 1.53555e-07 0)
(6.9596 2.30715e-07 0)
(6.9596 1.60962e-07 0)
(6.95968 -0.000164219 0)
(6.95962 -0.000139924 0)
(6.95968 -0.000264347 0)
(6.95734 0.0120594 0)
(6.9596 -2.88963e-13 0)
(6.9596 -1.30133e-12 0)
(6.9596 -2.1968e-09 0)
(6.9596 1.16103e-08 0)
(6.9596 3.53826e-08 0)
(6.9596 3.28743e-08 0)
(6.9596 1.06803e-06 0)
(6.9596 -1.11277e-05 0)
(6.95961 -3.55306e-05 0)
(6.95959 3.13918e-05 0)
)
;

boundaryField
{
    inlet
    {
        type            fixedValue;
        value           uniform (6.9596 0 0);
    }
    outlet
    {
        type            zeroGradient;
    }
    bottom
    {
        type            symmetryPlane;
    }
    top
    {
        type            symmetryPlane;
    }
    obstacle
    {
        type            slip;
    }
    defaultFaces
    {
        type            empty;
    }
}


// ************************************************************************* //
