/*--------------------------------*- C++ -*----------------------------------*\
| =========                 |                                                 |
| \\      /  F ield         | OpenFOAM: The Open Source CFD Toolbox           |
|  \\    /   O peration     | Version:  2206                                  |
|   \\  /    A nd           | Website:  www.openfoam.com                      |
|    \\/     M anipulation  |                                                 |
\*---------------------------------------------------------------------------*/
FoamFile
{
    version     2.0;
    format      ascii;
    arch        "LSB;label=32;scalar=64";
    class       volScalarField;
    location    "0.14";
    object      T;
}
// * * * * * * * * * * * * * * * * * * * * * * * * * * * * * * * * * * * * * //

dimensions      [0 0 0 1 0 0 0];

internalField   nonuniform List<scalar> 
4800
(
1
1
1
1
1
1
1
1
1
1
1
1
1
1
1
1
1
1
1
1
1
1
1
1
1
1
1
1
1
1
1
1
1
1
1
1
1
1
1
1
1
1
1
1
1
1
1
1
1
1
1
1
1
1
1
1
1
1
1
1
1
1
1
1
1
1
1
1
1
1
1
1
1
1
1
1
1
1
1
1
1
1
1
1
1
1
1
1
1
1
1
1
1
1
1
1
1
1
1
1
1
1
1
1
1
1
1
1
1
1
1
1
1
1
1
1
1
1
1
1
1
1
1
1
1
1
1
1
1
1
1
1
1
1
1
1
1
1
1
1
1
1
1
1
1
1
1
1
1
1
1
1
1
1
1
1
1
1
1
1
1
1
1
1
1
1
1
1
1
1
1
1
1
1
1
1
1
1
1
1
1
1
1
1
1
1
1
1
1
1
1
1
1
1
1
1
1
1
1
1
1
1
1
1
1
1
1
1
1
1
1
1
1
1
1
1
1
1
1
1
1
1
1
1
1
1
1
1
1
1
1
1
1
1
1
1
1
1
1
1
1
1
1
1
1
1
1
1
1
1
1
1
1
1
1
1
1
1
1
1
1
1
1
1
1
1
1
1
1
1
1
1
1
1
1
1
1
1
1
1
1
1
1
1
1
1
1
1
1
1
1
1
1
1
1
1
1
1
1
1
1
1
1
1
1
1
1
1
1
1
1
1
1
1
1
1
1
1
1
1
1
1
1
1
1
1
1
1
1
1
1
1
1
1
1
1
1
1
1
1
1
1
1
1
1
1
1
1
1
1
1
1
1
1
1
1
1
1
1
1
1
1
1
1
1
1
1
1
1
1
1
1
1
1
1
1
1
1
1
1
1
1
1
1
1
1
1
1
1
1
1
1
1
1
1
1
1
1
1
1
1
1
1
1
1
1
1
1
1
1
1
1
1
1
1
1
1
1
1
1
1
1
1
1
1
1
1
1
1
1
1
1
1
1
1
1
1
1
1
1
1
1
1
1
1
1
1
1
1
1
1
1
1
1
1
1
1
1
1
1
1
1
1
1
1
1
1
1
1
1
1
1
1
1
1
1
1
1
1
1
1
1
1
1
1
1
1
1
1
1
1
1
1
1
1
1
1
1
1
1
1
1
1
1
1
1
1
1
1
1
1
1
1
1
1
1
1
1
1
1
1
1
1
1
1
1
1
1
1
1
1
1
1
1
1
1
1
1
1
1
1
1
1
1
1
1
1
1
1
1
1
1
1
1
1
1
1
1
1
1
1
1
1
1
1
1
1
1
1
1
1
1
1
1
1
1
1
1
1
1
1
1
1
1
1
1
1
1
1
1
1
1
1
1
1
1
1
1
1
1
1
1
1
1
1
1
1
1
1
1
1
1
1
1
1
1
1
1
1
1
1
1
1
1
1
1
1
1
1
1
1
1
1
1
1
1
1
1
1
1
1
1
1
1
1
1
1
1
1
1
1
1
1
1
1
1
1
1
1
1
1
1
1
1
1
1
1
1
1
1
1
1
1
1
1
1
1
1
1
1
1
1
1
1
1
1
1
1
1
1
1
1
1
1
1
1
1
1
1
1
1
1
1
1
1
1
1
1
1
1
1
1
1
1
1
1
1
1
1
1
1
1
1
1
1
1
1
1
1
1
1
1
1
1
1
1
1
1
1
1
1
1
1
1
1
1
1
1
1
1
1
1
1
1
1
1
1
1
1
1
1
1
1
1
1
1
1
1
1
1
1
1
1
1
1
1
1
1
1
1
1
1
1
1
1
1
1
1
1
1
1
1
1
1
1
1
1
1
1
1
1
1
1
1
1
1
1
1
1
1
1
1
1
1
1
1
1
1
1
1
1
1
1
1
1
1
1
1
1
1
1
1
1
1
1
1
1
1
1
1
1
1
1
1
1
1
1
1
1
1
1
1
1
1
1
1
1
1
1
1
1
1
1
1
1
1
1
1
1
1
1
1
1
1
1
1
1
1
1
1
1
1
1
1
1
1
1
1
1
1
1
1
1
1
1
1
1
1
1
1
1
1
1
1
1
1
1
1
1
1
1
1
1
1
1
1
1
1
1
1
1
1
1
1
1
1
1
1
1
1
1
1
1
1
1
1
1
1
1
1
1
1
1
1
1
1
1
1
1
1
1
1
1
1
1
1
1
1
1
1
1
1
1
1
1
1
1
1
1
1
1
1
1
1
1
1
1
1
1
1
1
1
1
1
1
1
1
1
1
1
1
1
1
1
1
1
1
1
1
1
1
1
1
1
1
1
1
1
1
1
1
1
1
1
1
1
1
1
1
1
1
1
1
1
1
1
1
1
1
1
1
1
1
1
1
1
1
1
1
1
1
1
1
1
1
1
1
1
1
1
1
1
1
1
1
1
1
1
1
1
1
1
1
1
1
1
1
1
1
1
1
1
1
1
1
1
1
1
1
1
1
1
1
1
1
1
1
1
1
1
1
1
1
1
1
1
1
1
1
1
1
1
1
1
1
1
1
1
1
1
1
1
1
1
1
1
1
1
1
1
1
1
1
1
1
1
1
1
1
1
1
1
1
1
1
1
1
1
1
1
1
1
1
1
1
1
1
1
1
1
1
1
1
1
1
1
1
1
1
1
1
1
1
1
1
1
1
1
1
1
1
1
1
1
1
1
1
1
1
1
1
1
1
1
1
1
1
1
1
1
1
1
1
1
1
1
1
1
1
1
1
1
1
1
1
1
1
1
1
1
1
1
1
1
1
1
1
1
1
1
1
1
1
1
1
1
1
1
1
1
1
1
1
1
1
1
1
1
1
1
1
1
1
1
1
1
1
1
1
1
1
1
1
1
1
1
1
1
1
1
1
1
1
1
1
1
1
1
1
1
1
1
1
1
1
1
1
1
1
1
1
1
1
1
1
1
1
1
1
1
1
1
1
1
1
1
1
1
1
1
1
1
1
1
1
1
1
1
1
1
1
1
1
1
1
1
1
1
1
1
1
1
1
1
1
1
1
1
1
1
1
1
1
1
1
1
1
1
1
1
1
1
1
1
1
1
1
1
1
1
1
1
1
1
1
1
1
1
1
1
1
1
1
1
1
1
1
1
1
1
1
1
1
1
1
1
1
1
1
1
1
1
1
1
1
1
1
1
1
1
1
1
1
1
1
1
1
1
1
1
1
1
1
1
1
1
1
1
1
1
1
1
1
1
1
1
1
1
1
1
1
1
1
1
1
1
1
1
1
1
1
1
1
1
1
1
1
1
1
1
1
1
1
1
1
1
1
1
1
1
1
1
1
1
1
1
1
1
1
1
1
1
1
1
1
1
1
1
1
1
1
1
1
1
1
1
1
1
1
1
1
1
1
1
1
1
1
1
1
1
1
1
1
1
1
1
1
1
1
1
1
1
1
1
1
1
1
1
1
1
1
1
1
1
1
1
1
1
1
1
1
1
1
1
1
1
1
1
1
1
1
1
1
1
1
1
1
1
1
1
1
1
1
1
1
1
1
1
1
1
1
1
1
1
1
1
1
1
1
1
1
1
1
1
1
1
1
1
1
1
1
1
1
1
1
1
1
1
1
1
1
1
1
1
1
1
1
1
1
1
1
1
1
1
1
1
1
1
1
1
1.07152
1.16343
1.26529
1.3617
1.44004
1.52488
1.60007
1.65721
1.72918
1.77219
1.79006
1.80446
1.80103
1.78925
1.76432
1.72141
1.67712
1.64652
1.62757
1.60421
1.59898
1.60165
1.60557
1.61045
1.61475
1.61928
1.62633
1.63374
1.63712
1.63664
1.63578
1.63646
1.63762
1.63902
1.63985
1.63981
1.63969
1.64065
1.64258
1.64375
1.64436
1.6446
1.64515
1.6459
1.64609
1.64576
1.64412
1.64194
1.64087
1.64075
1.64177
1.644
1.64605
1.64747
1.64833
1.64908
1.64978
1.65028
1.65037
1.65017
1.64969
1.64874
1.64774
1.64698
1.64618
1.64539
1.645
1.6451
1.6459
1.64754
1.65003
1.65205
1.65254
1.65264
1.6526
1.65226
1.65178
1.65147
1.65133
1.65116
0.999956
1.00071
1.00063
1.01826
1.06031
1.1003
1.17786
1.25295
1.31517
1.39609
1.44605
1.50439
1.5413
1.57843
1.59639
1.61402
1.66382
1.67393
1.67053
1.66717
1.65881
1.65536
1.65151
1.64698
1.64003
1.63088
1.63091
1.63319
1.63579
1.63685
1.63799
1.64037
1.64239
1.64353
1.64462
1.64478
1.6447
1.64427
1.64413
1.64381
1.6438
1.64456
1.64682
1.64916
1.6497
1.64949
1.64838
1.6469
1.64675
1.64679
1.64711
1.648
1.64815
1.64797
1.64756
1.64753
1.64809
1.6491
1.65021
1.65105
1.65147
1.65174
1.65181
1.65181
1.65151
1.65075
1.64985
1.64955
1.64982
1.65052
1.6511
1.65126
1.65116
1.65101
1.65076
1.65058
1.65061
1.65085
1.65142
1.65197
1
1
1
1
0.999998
1
0.99976
1.00079
1.00585
1.03208
1.07773
1.15949
1.2835
1.40223
1.53477
1.63475
1.71708
1.7401
1.73218
1.72478
1.71846
1.70969
1.69886
1.68008
1.66078
1.6451
1.64423
1.64709
1.64834
1.64891
1.65114
1.65411
1.65589
1.65646
1.65683
1.65681
1.65691
1.65661
1.65531
1.65404
1.65271
1.65235
1.65321
1.65557
1.65751
1.65823
1.65821
1.65734
1.65661
1.65688
1.65721
1.6573
1.65672
1.65505
1.65338
1.65235
1.6518
1.65196
1.65256
1.65367
1.65534
1.65719
1.65825
1.65842
1.65829
1.65764
1.65684
1.65641
1.6563
1.65631
1.65603
1.65519
1.65438
1.65359
1.65292
1.6524
1.65197
1.65185
1.65225
1.65357
1
1
1
1
1
1
1
1
1
1
1
0.999731
1.00323
1.02102
1.102
1.26569
1.42283
1.56789
1.62716
1.68024
1.70464
1.70107
1.70032
1.70483
1.70028
1.69214
1.68828
1.68528
1.68016
1.67359
1.66867
1.6653
1.66398
1.66504
1.66736
1.66977
1.6717
1.67232
1.67203
1.67102
1.66898
1.66693
1.66613
1.66656
1.66687
1.66678
1.66699
1.66767
1.66874
1.67002
1.67057
1.67031
1.66911
1.66738
1.66549
1.66301
1.66139
1.66133
1.66147
1.66149
1.66159
1.66221
1.66344
1.6647
1.66537
1.66557
1.66543
1.66488
1.66444
1.66394
1.66317
1.66219
1.66083
1.65937
1.65838
1.65773
1.65721
1.657
1.65723
1.65748
1
1
1
1
1
1
1
1
1
1
1
1
1
1
0.999832
1.00102
1.01369
1.09086
1.24033
1.37625
1.5164
1.60384
1.69846
1.73441
1.73249
1.73033
1.72636
1.72049
1.71111
1.69313
1.67779
1.67324
1.67451
1.67733
1.67954
1.68126
1.68317
1.68339
1.68264
1.68222
1.68191
1.6815
1.68004
1.67998
1.67958
1.67809
1.67655
1.67598
1.67614
1.67703
1.67844
1.67977
1.68016
1.67969
1.67795
1.67608
1.67494
1.67392
1.67317
1.67259
1.67195
1.67143
1.67111
1.67093
1.67085
1.67082
1.67078
1.67077
1.67088
1.67096
1.67075
1.67021
1.66919
1.66789
1.66715
1.6667
1.66611
1.66554
1.66531
1.66468
1
1
1
1
1
1
1
1
1
1
1
1
1
1
1
1
1
0.999853
1.0007
1.00873
1.06966
1.20717
1.35929
1.50642
1.58786
1.66524
1.69559
1.69698
1.69923
1.6999
1.69264
1.6882
1.68956
1.69085
1.68969
1.68745
1.68611
1.68415
1.68157
1.68202
1.68401
1.6861
1.68941
1.68965
1.68856
1.68659
1.68453
1.68245
1.68105
1.68064
1.68091
1.68232
1.68422
1.68544
1.68578
1.68585
1.68551
1.68521
1.68489
1.68414
1.68285
1.6814
1.68
1.67872
1.67756
1.67665
1.67596
1.67555
1.67554
1.67586
1.67631
1.67653
1.67661
1.67654
1.67637
1.67616
1.67573
1.67519
1.67474
1.6735
1
1
1
1
1
1
1
1
1
1
1
1
1
1
1
1
1
1
1
1
0.999881
1.00049
1.00821
1.06986
1.1901
1.32713
1.46868
1.56403
1.6632
1.69255
1.69786
1.70314
1.70232
1.69998
1.69512
1.68443
1.67575
1.67512
1.67683
1.67971
1.68267
1.68772
1.69183
1.69271
1.69202
1.68931
1.68625
1.68396
1.68224
1.68167
1.68191
1.68285
1.68357
1.68481
1.68656
1.68826
1.68944
1.69015
1.69028
1.68987
1.68883
1.68735
1.68565
1.68394
1.6823
1.68106
1.6803
1.68011
1.68015
1.68027
1.68043
1.68087
1.68132
1.68171
1.68215
1.68253
1.68265
1.68255
1.68215
1.68075
1
1
1
1
1
1
1
1
1
1
1
1
1
1
1
1
1
1
1
1
1
1
1
0.999917
1.00048
1.00677
1.06329
1.17677
1.31959
1.46569
1.55923
1.64841
1.671
1.67578
1.68176
1.67962
1.67302
1.67141
1.674
1.67729
1.68017
1.68366
1.68645
1.68714
1.68741
1.68784
1.6883
1.68805
1.6865
1.68475
1.68406
1.68369
1.6837
1.68375
1.68392
1.68452
1.68557
1.68702
1.68829
1.68907
1.68942
1.68947
1.68927
1.68842
1.68738
1.68624
1.68507
1.68443
1.68436
1.68441
1.68454
1.68459
1.68467
1.68483
1.68505
1.68531
1.68554
1.68547
1.68514
1.68407
1
1
1
1
1
1
1
1
1
1
1
1
1
1
1
1
1
1
1
1
1
1
1
1
0.999999
1
0.99995
1.00065
1.00835
1.07468
1.18818
1.33411
1.46058
1.56056
1.64639
1.66273
1.66969
1.67446
1.67665
1.67564
1.67419
1.67124
1.66907
1.66953
1.67411
1.67929
1.6823
1.68431
1.68674
1.68856
1.68847
1.68766
1.68599
1.68345
1.68109
1.68031
1.68032
1.681
1.68197
1.68285
1.68398
1.68531
1.68683
1.6881
1.68836
1.68826
1.68831
1.68874
1.68874
1.68827
1.68715
1.68566
1.68513
1.68509
1.68503
1.68501
1.68497
1.68492
1.68477
1.68437
1
1
1
1
1
1
1
1
1
1
1
1
1
1
1
1
1
1
1
1
1
1
1
1
1
1
1
0.999999
0.999998
1.00001
1.00112
1.01243
1.08571
1.19386
1.34284
1.46834
1.56816
1.64215
1.65503
1.65795
1.66661
1.6628
1.65644
1.65605
1.65826
1.66266
1.66772
1.67338
1.67845
1.68129
1.68307
1.68472
1.68587
1.6859
1.6837
1.67988
1.67741
1.6764
1.67639
1.6774
1.67866
1.68018
1.68149
1.68269
1.68403
1.68512
1.68633
1.68748
1.68817
1.68816
1.68776
1.68674
1.68514
1.68414
1.68408
1.6842
1.68456
1.68494
1.68493
1.68489
1
1
1
1
1
1
1
1
1
1
1
1
1
1
1
1
1
1
1
1
1
1
1
1
1
1
1
1
1
1
1
0.999984
1.0001
1.00169
1.01896
1.10777
1.22722
1.38175
1.49131
1.59228
1.64551
1.65547
1.65475
1.65755
1.65354
1.6534
1.65559
1.65795
1.66046
1.66354
1.66847
1.67484
1.67884
1.67921
1.67937
1.6793
1.67891
1.6781
1.67706
1.67572
1.67476
1.6748
1.67562
1.67619
1.67685
1.67791
1.67973
1.68262
1.68479
1.68514
1.68474
1.68402
1.684
1.68434
1.6845
1.68455
1.68465
1.68484
1.6848
1.68474
1
1
1
1
1
1
1
1
1
1
1
1
1
1
1
1
1
1
1
1
1
1
1
1
1
1
1
1
1
1
1
1
1
1
0.999981
1.00036
1.00369
1.03824
1.14077
1.27027
1.41593
1.52287
1.61627
1.64512
1.64823
1.65508
1.65872
1.65395
1.65058
1.6504
1.65189
1.65557
1.65951
1.66398
1.66805
1.67107
1.67306
1.6749
1.67614
1.67712
1.67717
1.67589
1.6737
1.67174
1.67089
1.67127
1.67321
1.67628
1.6785
1.679
1.67883
1.67894
1.67999
1.68135
1.68253
1.68343
1.68416
1.68459
1.68474
1.68484
1
1
1
1
1
1
1
1
1
1
1
1
1
1
1
1
1
1
1
1
1
1
1
1
1
1
1
1
1
1
1
1
1
1
0.999999
1
0.999995
1.00001
1.00098
1.00852
1.07012
1.18632
1.34239
1.46655
1.56435
1.62955
1.65117
1.65338
1.6565
1.65542
1.65032
1.64715
1.64753
1.64881
1.65088
1.65324
1.65837
1.66557
1.67069
1.67234
1.67312
1.67293
1.67232
1.67168
1.67025
1.66932
1.66946
1.6706
1.67217
1.67275
1.67282
1.67322
1.67422
1.67582
1.67804
1.68003
1.68114
1.68173
1.68219
1.68292
1
1
1
1
1
1
1
1
1
1
1
1
1
1
1
1
1
1
1
1
1
1
1
1
1
1
1
1
1
1
1
1
1
1
1
1
1
1
1
0.999989
1.0002
1.00263
1.02672
1.13324
1.26373
1.40791
1.51826
1.60978
1.64758
1.65269
1.65358
1.65725
1.65541
1.6498
1.64631
1.64659
1.64894
1.65277
1.65682
1.65991
1.66308
1.66573
1.66669
1.66715
1.66687
1.66774
1.66988
1.67096
1.67095
1.67032
1.66912
1.66852
1.66876
1.67047
1.67329
1.67536
1.67633
1.67698
1.67766
1.679
1
1
1
1
1
1
1
1
1
1
1
1
1
1
1
1
1
1
1
1
1
1
1
1
1
1
1
1
1
1
1
1
1
1
1
1
1
1
1
0.999999
1
0.999996
1.00001
1.00128
1.00946
1.07414
1.21164
1.3671
1.49106
1.57867
1.63236
1.64832
1.65177
1.65595
1.65683
1.65618
1.65379
1.65106
1.65054
1.65114
1.65159
1.65239
1.65393
1.65617
1.65937
1.66245
1.66502
1.66668
1.66745
1.66763
1.66684
1.66621
1.66659
1.66784
1.6699
1.67115
1.67161
1.67196
1.67233
1.67347
1
1
1
1
1
1
1
1
1
1
1
1
1
1
1
1
1
1
1
1
1
1
1
1
1
1
1
1
1
1
1
1
1
1
1
1
1
1
1
1
1
1
1
1
0.999992
1.00042
1.0051
1.04093
1.18019
1.32948
1.45668
1.54475
1.61223
1.65162
1.65587
1.65708
1.66082
1.66176
1.66036
1.65656
1.65128
1.6486
1.64863
1.64927
1.65073
1.65323
1.65664
1.66105
1.66309
1.66366
1.66275
1.66245
1.66337
1.66573
1.66774
1.66837
1.66836
1.66815
1.66814
1.66851
1
1
1
1
1
1
1
1
1
1
1
1
1
1
1
1
1
1
1
1
1
1
1
1
1
1
1
1
1
1
1
1
1
1
1
1
1
1
1
1
1
1
1
1
0.999999
1
0.999994
1.00012
1.00401
1.0244
1.12739
1.29224
1.44438
1.54421
1.60357
1.63605
1.65369
1.65879
1.66048
1.65991
1.65796
1.65751
1.65655
1.6535
1.65058
1.65026
1.65263
1.65546
1.65658
1.65668
1.65614
1.65669
1.65853
1.66179
1.66355
1.66406
1.6643
1.66455
1.66458
1.66494
1
1
1
1
1
1
1
1
1
1
1
1
1
1
1
1
1
1
1
1
1
1
1
1
1
1
1
1
1
1
1
1
1
1
1
1
1
1
1
1
1
1
1
1
1
1
1
1
0.999997
1.00003
1.00217
1.0177
1.10644
1.2902
1.46057
1.54557
1.59187
1.62918
1.64783
1.65202
1.65581
1.65949
1.66104
1.65974
1.65716
1.65648
1.65687
1.65689
1.65657
1.65432
1.65214
1.65214
1.65336
1.6567
1.65942
1.66023
1.66056
1.66067
1.66039
1.66062
1
1
1
1
1
1
1
1
1
1
1
1
1
1
1
1
1
1
1
1
1
1
1
1
1
1
1
1
1
1
1
1
1
1
1
1
1
1
1
1
1
1
1
1
1
1
1
1
1
1
0.999998
1.00001
1.00174
1.02023
1.1068
1.29196
1.4549
1.5615
1.60358
1.62223
1.63073
1.64113
1.65092
1.65669
1.65738
1.65821
1.6594
1.66002
1.66054
1.65906
1.65455
1.6517
1.65206
1.65445
1.65708
1.65745
1.65734
1.65698
1.65647
1.65673
1
1
1
1
1
1
1
1
1
1
1
1
1
1
1
1
1
1
1
1
1
1
1
1
1
1
1
1
1
1
1
1
1
1
1
1
1
1
1
1
1
1
1
1
1
1
1
1
1
1
1
1
0.999998
1.00003
1.00167
1.02419
1.10351
1.28476
1.48407
1.60712
1.61889
1.62853
1.63431
1.64357
1.64596
1.6466
1.65061
1.65602
1.65883
1.65727
1.65303
1.65182
1.65272
1.65567
1.65785
1.65797
1.65753
1.65621
1.6551
1.65506
1
1
1
1
1
1
1
1
1
1
1
1
1
1
1
1
1
1
1
1
1
1
1
1
1
1
1
1
1
1
1
1
1
1
1
1
1
1
1
1
1
1
1
1
1
1
1
1
1
1
1
1
1
1
0.999998
1.00006
1.0016
1.0263
1.13114
1.34013
1.51663
1.60713
1.64
1.64788
1.6467
1.64379
1.64462
1.64761
1.65021
1.65042
1.64841
1.64813
1.65084
1.65604
1.65808
1.65786
1.65709
1.65623
1.65598
1.65602
1
1
1
1
1
1
1
1
1
1
1
1
1
1
1
1
1
1
1
1
1
1
1
1
1
1
1
1
1
1
1
1
1
1
1
1
1
1
1
1
1
1
1
1
1
1
1
1
1
1
1
1
1
1
1
1
0.999998
1.00011
1.00306
1.04606
1.18504
1.381
1.53586
1.63379
1.65727
1.65503
1.65816
1.65851
1.65316
1.64836
1.64641
1.64587
1.64833
1.65272
1.65497
1.65479
1.65359
1.65364
1.65464
1.65581
1
1
1
1
1
1
1
1
1
1
1
1
1
1
1
1
1
1
1
1
1
1
1
1
1
1
1
1
1
1
1
1
1
1
1
1
1
1
1
1
1
1
1
1
1
1
1
1
1
1
1
1
1
1
1
1
1
1
0.999999
1.00041
1.00663
1.07755
1.23843
1.44334
1.57653
1.62612
1.65377
1.66022
1.65946
1.65648
1.6538
1.65416
1.65539
1.65557
1.65446
1.65208
1.64933
1.64839
1.64903
1.65246
1
1
1
1
1
1
1
1
1
1
1
1
1
1
1
1
1
1
1
1
1
1
1
1
1
1
1
1
1
1
1
1
1
1
1
1
1
1
1
1
1
1
1
1
1
1
1
1
1
1
1
1
1
1
1
1
1
1
1
0.999999
1.00001
1.00116
1.0142
1.12121
1.3493
1.51226
1.57559
1.6282
1.65209
1.6489
1.65247
1.66192
1.66574
1.66583
1.66373
1.65871
1.65356
1.64943
1.64844
1.65047
1
1
1
1
1
1
1
1
1
1
1
1
1
1
1
1
1
1
1
1
1
1
1
1
1
1
1
1
1
1
1
1
1
1
1
1
1
1
1
1
1
1
1
1
1
1
1
1
1
1
1
1
1
1
1
1
1
1
1
1
1
0.999999
1.00005
1.00386
1.04385
1.22212
1.41121
1.57078
1.62446
1.62209
1.63145
1.64679
1.65618
1.66072
1.66092
1.65911
1.6582
1.65751
1.65434
1.65207
1
1
1
1
1
1
1
1
1
1
1
1
1
1
1
1
1
1
1
1
1
1
1
1
1
1
1
1
1
1
1
1
1
1
1
1
1
1
1
1
1
1
1
1
1
1
1
1
1
1
1
1
1
1
1
1
1
1
1
1
1
1
1
1
1.0005
1.01613
1.09897
1.29308
1.51395
1.62751
1.64176
1.64065
1.63882
1.64006
1.64442
1.65141
1.65807
1.66179
1.6607
1.65709
1
1
1
1
1
1
1
1
1
1
1
1
1
1
1
1
1
1
1
1
1
1
1
1
1
1
1
1
1
1
1
1
1
1
1
1
1
1
1
1
1
1
1
1
1
1
1
1
1
1
1
1
1
1
1
1
1
1
1
1
1
1
1
1
0.999999
1.00008
1.00269
1.03559
1.19418
1.4618
1.60194
1.65296
1.65106
1.64208
1.63858
1.64432
1.65293
1.65551
1.65587
1.65538
1
1
1
1
1
1
1
1
1
1
1
1
1
1
1
1
1
1
1
1
1
1
1
1
1
1
1
1
1
1
1
1
1
1
1
1
1
1
1
1
1
1
1
1
1
1
1
1
1
1
1
1
1
1
1
1
1
1
1
1
1
1
1
1
1
1
1
1.00039
1.01466
1.15296
1.36522
1.54504
1.62859
1.64588
1.65679
1.65812
1.65534
1.65271
1.65071
1.65236
1
1
1
1
1
1
1
1
1
1
1
1
1
1
1
1
1
1
1
1
1
1
1
1
1
1
1
1
1
1
1
1
1
1
1
1
1
1
1
1
1
1
1
1
1
1
1
1
1
1
1
1
1
1
1
1
1
1
1
1
1
1
1
1
1
1
1
1
1.00014
1.00682
1.08413
1.25804
1.46111
1.59189
1.65268
1.66548
1.6633
1.65985
1.65469
1.65468
1
1
1
1
1
1
1
1
1
1
1
1
1
1
1
1
1
1
1
1
1
1
1
1
1
1
1
1
1
1
1
1
1
1
1
1
1
1
1
1
1
1
1
1
1
1
1
1
1
1
1
1
1
1
1
1
1
1
1
1
1
1
1
1
1
1
1
1
1
1.00003
1.00224
1.02394
1.18161
1.43528
1.57962
1.61962
1.64487
1.65471
1.65268
1.65241
1
1
1
1
1
1
1
1
1
1
1
1
1
1
1
1
1
1
1
1
1
1
1
1
1
1
1
1
1
1
1
1
1
1
1
1
1
1
1
1
1
1
1
1
1
1
1
1
1
1
1
1
1
1
1
1
1
1
1
1
1
1
1
1
1
1
1
1
1
1
1
1.00031
1.01409
1.12112
1.38142
1.56118
1.6536
1.65321
1.64327
1.63698
1
1
1
1
1
1
1
1
1
1
1
1
1
1
1
1
1
1
1
1
1
1
1
1
1
1
1
1
1
1
1
1
1
1
1
1
1
1
1
1
1
1
1
1
1
1
1
1
1
1
1
1
1
1
1
1
1
1
1
1
1
1
1
1
1
1
1
1
1
1
1
1
1.00016
1.00656
1.10212
1.30956
1.54203
1.64525
1.64892
1.64767
1
1
1
1
1
1
1
1
1
1
1
1
1
1
1
1
1
1
1
1
1
1
1
1
1
1
1
1
1
1
1
1
1
1
1
1
1
1
1
1
1
1
1
1
1
1
1
1
1
1
1
1
1
1
1
1
1
1
1
1
1
1
1
1
1
1
1
1
1
1
1
1
1
1.00007
1.00409
1.06461
1.2589
1.51069
1.62
1.64997
1
1
1
1
1
1
1
1
1
1
1
1
1
1
1
1
1
1
1
1
1
1
1
1
1
1
1
1
1
1
1
1
1
1
1
1
1
1
1
1
1
1
1
1
1
1
1
1
1
1
1
1
1
1
1
1
1
1
1
1
1
1
1
1
1
1
1
1
1
1
1
1
1
1
1.00002
1.00223
1.03212
1.23513
1.49614
1.63133
1
1
1
1
1
1
1
1
1
1
1
1
1
1
1
1
1
1
1
1
1
1
1
1
1
1
1
1
1
1
1
1
1
1
1
1
1
1
1
1
1
1
1
1
1
1
1
1
1
1
1
1
1
1
1
1
1
1
1
1
1
1
1
1
1
1
1
1
1
1
1
1
1
1
1
1.00001
1.00073
1.03196
1.2054
1.54548
1
1
1
1
1
1
1
1
1
1
1
1
1
1
1
1
1
1
1
1
1
1
1
1
1
1
1
1
1
1
1
1
1
1
1
1
1
1
1
1
1
1
1
1
1
1
1
1
1
1
1
1
1
1
1
1
1
1
1
1
1
1
1
1
1
1
1
1
1
1
1
1
1
1
1
1
1
1.00104
1.02126
1.36667
1
1
1
1
1
1
1
1
1
1
1
1
1
1
1
1
1
1
1
1
1
1
1
1
1
1
1
1
1
1
1
1
1
1
1
1
1
1
1
1
1
1
1
1
1
1
1
1
1
1
1
1
1
1
1
1
1
1
1
1
1
1
1
1
1
1
1
1
1
1
1
1
1
1
1
1
1
1.00001
1.00063
1.12492
1
1
1
1
1
1
1
1
1
1
1
1
1
1
1
1
1
1
1
1
1
1
1
1
1
1
1
1
1
1
1
1
1
1
1
1
1
1
1
1
1
1
1
1
1
1
1
1
1
1
1
1
1
1
1
1
1
1
1
1
1
1
1
1
1
1
1
1
1
1
1
1
1
1
1
1
1
1
1.00001
1.01862
1
1
1
1
1
1
1
1
1
1
1
1
1
1
1
1
1
1
1
1
1
1
1
1
1
1
1
1
1
1
1
1
1
1
1
1
1
1
1
1
1
1
1
1
1
1
1
1
1
1
1
1
1
1
1
1
1
1
1
1
1
1
1
1
1
1
1
1
1
1
1
1
1
1
1
1
1
1
1
1.00189
1
1
1
1
1
1
1
1
1
1
1
1
1
1
1
1
1
1
1
1
1
1
1
1
1
1
1
1
1
1
1
1
1
1
1
1
1
1
1
1
1
1
1
1
1
1
1
1
1
1
1
1
1
1
1
1
1
1
1
1
1
1
1
1
1
1
1
1
1
1
1
1
1
1
1
1
1
1
1
1.00015
)
;

boundaryField
{
    inlet
    {
        type            fixedValue;
        value           uniform 1;
    }
    outlet
    {
        type            zeroGradient;
    }
    bottom
    {
        type            symmetryPlane;
    }
    top
    {
        type            symmetryPlane;
    }
    obstacle
    {
        type            zeroGradient;
    }
    defaultFaces
    {
        type            empty;
    }
}


// ************************************************************************* //
