/*--------------------------------*- C++ -*----------------------------------*\
| =========                 |                                                 |
| \\      /  F ield         | OpenFOAM: The Open Source CFD Toolbox           |
|  \\    /   O peration     | Version:  2206                                  |
|   \\  /    A nd           | Website:  www.openfoam.com                      |
|    \\/     M anipulation  |                                                 |
\*---------------------------------------------------------------------------*/
FoamFile
{
    version     2.0;
    format      ascii;
    arch        "LSB;label=32;scalar=64";
    class       volScalarField;
    location    "0.14";
    object      p;
}
// * * * * * * * * * * * * * * * * * * * * * * * * * * * * * * * * * * * * * //

dimensions      [1 -1 -2 0 0 0 0];

internalField   nonuniform List<scalar> 
4800
(
1
1
1
1
1
1
1
1
1
1
1
1
1
1
1
1
1
1
1
1
1
1
1
1
1
1
1
1
1
1
1
1
1
1
1
1
1
1
1
1
1
1
1
1
1
1
1
1
1
1
1
1
1
1
1
1
1
1
1
1
1
1
1
1
1
1
1
1
1
1
1
1
1
1
1
1
1
1
1
1
1
1
1
1
1
1
1
1
1
1
1
1
1
1
1
1
1
1
1
1
1
1
1
1
1
1
1
1
1
1
1
1
1
1
1
1
1
1
1
1
1
1
1
1
1
1
1
1
1
1
1
1
1
1
1
1
1
1
1
1
1
1
1
1
1
1
1
1
1
1
1
1
1
1
1
1
1
1
1
1
1
1
1
1
1
1
1
1
1
1
1
1
1
1
1
1
1
1
1
1
1
1
1
1
1
1
1
1
1
1
1
1
1
1
1
1
1
1
1
1
1
1
1
1
1
1
1
1
1
1
1
1
1
1
1
1
1
1
1
1
1
1
1
1
1
1
1
1
1
1
1
1
1
1
1
1
1
1
1
1
1
1
1
1
1
1
1
1
1
1
1
1
1
1
1
1
1
1
1
1
1
1
1
1
1
1
1
1
1
1
1
1
1
1
1
1
1
1
1
1
1
1
1
1
1
1
1
1
1
1
1
1
1
1
1
1
1
1
1
1
1
1
1
1
1
1
1
1
1
1
1
1
1
1
1
1
1
1
1
1
1
1
1
1
1
1
1
1
1
1
1
1
1
1
1
1
1
1
1
1
1
1
1
1
1
1
1
1
1
1
1
1
1
1
1
1
1
1
1
1
1
1
1
1
1
1
1
1
1
1
1
1
1
1
1
1
1
1
1
1
1
1
1
1
1
1
1
1
1
1
1
1
1
1
1
1
1
1
1
1
1
1
1
1
1
1
1
1
1
1
1
1
1
1
1
1
1
1
1
1
1
1
1
1
1
1
1
1
1
1
1
1
1
1
1
1
1
1
1
1
1
1
1
1
1
1
1
1
1
1
1
1
1
1
1
1
1
1
1
1
1
1
1
1
1
1
1
1
1
1
1
1
1
1
1
1
1
1
1
1
1
1
1
1
1
1
1
1
1
1
1
1
1
1
1
1
1
1
1
1
1
1
1
1
1
1
1
1
1
1
1
1
1
1
1
1
1
1
1
1
1
1
1
1
1
1
1
1
1
1
1
1
1
1
1
1
1
1
1
1
1
1
1
1
1
1
1
1
1
1
1
1
1
1
1
1
1
1
1
1
1
1
1
1
1
1
1
1
1
1
1
1
1
1
1
1
1
1
1
1
1
1
1
1
1
1
1
1
1
1
1
1
1
1
1
1
1
1
1
1
1
1
1
1
1
1
1
1
1
1
1
1
1
1
1
1
1
1
1
1
1
1
1
1
1
1
1
1
1
1
1
1
1
1
1
1
1
1
1
1
1
1
1
1
1
1
1
1
1
1
1
1
1
1
1
1
1
1
1
1
1
1
1
1
1
1
1
1
1
1
1
1
1
1
1
1
1
1
1
1
1
1
1
1
1
1
1
1
1
1
1
1
1
1
1
1
1
1
1
1
1
1
1
1
1
1
1
1
1
1
1
1
1
1
1
1
1
1
1
1
1
1
1
1
1
1
1
1
1
1
1
1
1
1
1
1
1
1
1
1
1
1
1
1
1
1
1
1
1
1
1
1
1
1
1
1
1
1
1
1
1
1
1
1
1
1
1
1
1
1
1
1
1
1
1
1
1
1
1
1
1
1
1
1
1
1
1
1
1
1
1
1
1
1
1
1
1
1
1
1
1
1
1
1
1
1
1
1
1
1
1
1
1
1
1
1
1
1
1
1
1
1
1
1
1
1
1
1
1
1
1
1
1
1
1
1
1
1
1
1
1
1
1
1
1
1
1
1
1
1
1
1
1
1
1
1
1
1
1
1
1
1
1
1
1
1
1
1
1
1
1
1
1
1
1
1
1
1
1
1
1
1
1
1
1
1
1
1
1
1
1
1
1
1
1
1
1
1
1
1
1
1
1
1
1
1
1
1
1
1
1
1
1
1
1
1
1
1
1
1
1
1
1
1
1
1
1
1
1
1
1
1
1
1
1
1
1
1
1
1
1
1
1
1
1
1
1
1
1
1
1
1
1
1
1
1
1
1
1
1
1
1
1
1
1
1
1
1
1
1
1
1
1
1
1
1
1
1
1
1
1
1
1
1
1
1
1
1
1
1
1
1
1
1
1
1
1
1
1
1
1
1
1
1
1
1
1
1
1
1
1
1
1
1
1
1
1
1
1
1
1
1
1
1
1
1
1
1
1
1
1
1
1
1
1
1
1
1
1
1
1
1
1
1
1
1
1
1
1
1
1
1
1
1
1
1
1
1
1
1
1
1
1
1
1
1
1
1
1
1
1
1
1
1
1
1
1
1
1
1
1
1
1
1
1
1
1
1
1
1
1
1
1
1
1
1
1
1
1
1
1
1
1
1
1
1
1
1
1
1
1
1
1
1
1
1
1
1
1
1
1
1
1
1
1
1
1
1
1
1
1
1
1
1
1
1
1
1
1
1
1
1
1
1
1
1
1
1
1
1
1
1
1
1
1
1
1
1
1
1
1
1
1
1
1
1
1
1
1
1
1
1
1
1
1
1
1
1
1
1
1
1
1
1
1
1
1
1
1
1
1
1
1
1
1
1
1
1
1
1
1
1
1
1
1
1
1
1
1
1
1
1
1
1
1
1
1
1
1
1
1
1
1
1
1
1
1
1
1
1
1
1
1
1
1
1
1
1
1
1
1
1
1
1
1
1
1
1
1
1
1
1
1
1
1
1
1
1
1
1
1
1
1
1
1
1
1
1
1
1
1
1
1
1
1
1
1
1
1
1
1
1
1
1
1
1
1
1
1
1
1
1
1
1
1
1
1
1
1
1
1
1
1
1
1
1
1
1
1
1
1
1
1
1
1
1
1
1
1
1
1
1
1
1
1
1
1
1
1
1
1
1
1
1
1
1
1
1
1
1
1
1
1
1
1
1
1
1
1
1
1
1
1
1
1
1
1
1
1
1
1
1
1
1
1
1
1
1
1
1
1
1
1
1
1
1
1
1
1
1
1
1
1
1
1
1
1
1
1
1
1
1
1
1
1
1
1
1
1
1
1
1
1
1
1
1
1
1
1
1
1
1
1
1
1
1
1
1
1
1
1
1
1
1
1
1
1
1
1
1
1
1
1
1
1
1
1
1
1
1
1
1
1
1
1
1
1
1
1
1
1
1
1
1
1
1
1
1
1
1
1
1
1
1
1
1
1
1
1
1
1
1
1
1
1
1
1
1
1
1
1
1
1
1
1
1
1
1
1
1
1
1
1
1
1
1
1
1
1
1
1
1
1
1
1
1
1
1
1
1
1
1
1
1
1
1
1
1
1
1
1
1
1
1
1
1
1
1
1
1
1
1
1
1
1
1
1
1
1
1
1
1
1
1
1
1
1
1
1
1
1
1
1
1
1
1
1
1
1
1
1
1
1
1
1
1
1
1
1
1
1
1
1
1
1
1
1
1
1
1
1
1
1
1
1
1
1
1
1
1
1
1
1
1
1
1
1
1
1
1
1.25981
1.67574
2.18181
2.70927
3.35747
4.12401
4.62983
5.05852
5.704
6.59325
6.8088
6.83378
7.11223
7.30687
7.22189
6.94944
6.51779
6.01904
5.54774
5.19529
4.98008
4.6983
4.59498
4.58086
4.56658
4.57384
4.63559
4.74071
4.88735
4.93919
4.92659
4.88518
4.84153
4.8412
4.86616
4.9031
4.95589
4.996
5.00791
5.01056
5.00316
4.98929
4.97614
4.96176
4.94787
4.93695
4.93072
4.93271
4.94045
4.96195
4.99135
5.02029
5.03795
5.04077
5.0348
5.01276
4.97391
4.93417
4.91786
4.91523
4.91867
4.93457
4.96419
5.00276
5.03282
5.05417
5.06527
5.06541
5.05513
5.03781
5.01674
4.98278
4.94751
4.92984
4.93015
4.93922
4.9603
4.99173
5.02506
5.04028
1
0.999138
1.00241
1.02852
1.03822
1.11513
1.3535
1.6066
1.83851
2.21922
2.81595
3.26616
3.6136
4.26859
4.59374
4.79619
4.98175
5.09264
5.39635
5.44768
5.35657
5.28278
5.21888
5.16775
5.07494
4.92955
4.91808
4.88299
4.85667
4.82654
4.81965
4.82437
4.83039
4.8454
4.88124
4.90463
4.9203
4.9276
4.93101
4.94713
4.96534
4.97482
4.97632
4.97611
4.98041
4.98197
4.97757
4.96651
4.95124
4.9423
4.9426
4.95606
4.98147
5.00337
5.00942
5.00422
4.99463
4.99094
4.98818
4.98679
4.98418
4.97909
4.97526
4.97238
4.97133
4.97554
4.98645
5.00191
5.01661
5.01921
5.01209
5.00783
5.00448
4.99414
4.99131
4.99959
5.01027
5.01712
5.01721
5.01271
1
1
1
1
1
1
0.999995
1
0.999042
1.00126
1.03691
1.1563
1.31269
1.65346
2.32439
2.98942
3.91165
4.82083
5.43386
5.81787
5.80978
5.76148
5.70678
5.63091
5.5112
5.32334
5.02864
4.86072
4.7588
4.76787
4.81483
4.83786
4.85573
4.89079
4.91389
4.93659
4.93408
4.90964
4.88633
4.88317
4.89115
4.91298
4.95549
4.99772
5.01182
5.0127
5.0098
5.00118
4.98279
4.95313
4.92964
4.926
4.92825
4.93574
4.95353
4.98248
5.00989
5.02443
5.03091
5.03371
5.0323
5.0241
5.00689
4.97945
4.95456
4.93932
4.9322
4.93155
4.94674
4.98628
5.02356
5.03756
5.03961
5.03671
5.03395
5.0372
5.04092
5.03902
5.03212
5.01342
1
1
1
1
1
1
1
1
1
1
1
1
1
0.998991
1.01091
1.05782
1.24892
1.81571
2.53294
3.53756
4.18693
4.77199
5.26431
5.27595
5.26036
5.25936
5.21906
5.186
5.08544
4.99644
4.99967
4.99931
4.99185
4.94389
4.91409
4.89187
4.85449
4.84593
4.84672
4.85422
4.867
4.88534
4.92064
4.97112
5.00667
5.02427
5.03252
5.03092
5.01194
4.97104
4.94107
4.93336
4.93087
4.92862
4.92719
4.93679
4.96676
5.00687
5.043
5.06224
5.06208
5.05084
5.02871
4.99235
4.95696
4.93722
4.92787
4.92642
4.9327
4.95406
4.99095
5.02033
5.03491
5.04503
5.05226
5.05734
5.05928
5.05252
5.03806
5.01076
1
1
1
1
1
1
1
1
1
1
1
1
1
1
1
1
1
0.998805
1.01455
1.15531
1.57513
2.11636
2.98552
3.77916
4.51718
5.23177
5.35123
5.43954
5.42642
5.33878
5.25169
5.16169
5.02229
4.88945
4.87917
4.89912
4.90031
4.8849
4.87323
4.86696
4.8648
4.87592
4.88946
4.91606
4.93932
4.95696
4.9796
4.99928
5.00378
5.00003
4.98766
4.96858
4.96024
4.95391
4.94307
4.93425
4.9371
4.95081
4.97147
5.00158
5.03015
5.04002
5.03663
5.02184
5.00418
4.98701
4.97028
4.9612
4.96299
4.97539
4.9871
4.99454
5.001
5.00652
5.01081
5.01803
5.02406
5.02257
5.0169
5.01023
1
1
1
1
1
1
1
1
1
1
1
1
1
1
1
1
1
1
0.999999
1
0.999225
1.00257
1.07672
1.39371
1.82804
2.62014
3.44654
4.27973
4.86174
4.89342
4.99721
4.94083
4.8886
4.93233
4.98367
5.03243
5.05555
5.04064
5.01077
4.97112
4.93601
4.88998
4.84824
4.84458
4.85326
4.87572
4.90815
4.94442
4.97748
5.00511
5.02108
5.03084
5.03319
5.02814
5.00758
4.96482
4.94234
4.93625
4.9352
4.93849
4.95145
4.97717
5.00836
5.02745
5.03154
5.02895
5.02203
5.01664
5.01648
5.01606
5.01224
5.00231
4.98648
4.97275
4.96407
4.9616
4.9636
4.97219
4.99013
5.01282
1
1
1
1
1
1
1
1
1
1
1
1
1
1
1
1
1
1
1
1
1
1
1
0.999961
0.99964
1.04186
1.25574
1.61319
2.31076
3.0967
4.00651
4.62847
4.84364
5.07588
5.10904
5.0928
5.1104
5.10606
5.08017
5.02832
4.96739
4.9193
4.87514
4.86134
4.85874
4.86069
4.86974
4.88864
4.90905
4.9374
4.98402
5.03744
5.06168
5.06405
5.06027
5.03394
4.96351
4.92147
4.91059
4.90781
4.91288
4.9259
4.95485
4.99156
5.02383
5.04064
5.04225
5.0406
5.04392
5.04245
5.02581
4.99657
4.96774
4.94748
4.94377
4.94586
4.95022
4.95825
4.97082
5.00116
1
1
1
1
1
1
1
1
1
1
1
1
1
1
1
1
1
1
1
1
1
1
1
1
1
1
0.999997
0.998993
1.02433
1.16432
1.42569
2.09568
2.93905
3.88261
4.30452
4.51423
4.76962
4.80508
4.8533
4.90769
4.98344
5.03301
5.03826
5.02011
4.99124
4.95788
4.91196
4.86564
4.85525
4.85724
4.87764
4.94225
5.02521
5.06144
5.06139
5.051
5.03362
5.00285
4.97287
4.94744
4.93224
4.93411
4.94651
4.95887
4.97482
4.99539
5.00902
5.02109
5.03329
5.03716
5.03236
5.02031
5.00253
4.9791
4.96396
4.96365
4.96734
4.97512
4.98825
5.00452
1
1
1
1
1
1
1
1
1
1
1
1
1
1
1
1
1
1
1
1
1
1
1
1
1
1
1
1
0.999999
1
0.999247
1.01617
1.12297
1.37648
2.00547
2.73786
3.62344
4.14578
4.52118
4.84822
4.92851
5.00449
5.07879
5.08141
5.06466
5.02296
4.97361
4.90637
4.85207
4.83062
4.83582
4.8609
4.90247
4.95456
5.00111
5.0289
5.04052
5.04489
5.05044
5.04598
5.02505
4.99358
4.96987
4.96111
4.95745
4.95402
4.94984
4.9538
4.97079
4.99778
5.01511
5.01673
5.01264
5.00803
5.01147
5.01486
5.01574
5.01206
5.00895
5.01242
1
1
1
1
1
1
1
1
1
1
1
1
1
1
1
1
1
1
1
1
1
1
1
1
1
1
1
1
1
1
1
1
1
0.99931
1.01513
1.08626
1.29792
1.94475
2.71281
3.59632
3.98691
4.35808
4.74195
4.8733
4.93719
4.96903
5.02766
5.04646
5.01843
4.96317
4.90447
4.87511
4.86796
4.87545
4.88962
4.91006
4.94977
5.01283
5.06225
5.07331
5.06658
5.06477
5.05655
5.03524
4.99516
4.94374
4.92527
4.92578
4.9394
4.96213
4.97491
4.98172
4.9914
5.01058
5.03049
5.04037
5.03959
5.03435
5.02862
5.01214
1
1
1
1
1
1
1
1
1
1
1
1
1
1
1
1
1
1
1
1
1
1
1
1
1
1
1
1
1
1
1
1
1
1
1
0.999996
0.99952
1.01476
1.08402
1.33361
1.96427
2.69417
3.55733
4.07364
4.49456
4.74478
4.91518
5.03967
5.05992
5.05468
5.04076
5.01861
4.97267
4.91137
4.86294
4.84555
4.85499
4.88597
4.94159
5.00309
5.04435
5.06229
5.07173
5.07489
5.06451
5.02327
4.96878
4.94026
4.93867
4.95019
4.96371
4.96365
4.96544
4.97442
4.99923
5.02658
5.03318
5.02772
5.024
5.02052
1
1
1
1
1
1
1
1
1
1
1
1
1
1
1
1
1
1
1
1
1
1
1
1
1
1
1
1
1
1
1
1
1
1
1
1
0.999999
1
0.999953
0.999809
1.01855
1.08387
1.37944
2.10738
2.96798
3.57899
4.01064
4.53838
4.87736
4.99349
5.00945
5.03278
5.08143
5.06111
5.00312
4.91112
4.86129
4.86673
4.8815
4.90686
4.93392
4.96068
4.99962
5.03547
5.04666
5.02712
5.01382
5.01779
5.01853
5.01449
4.99915
4.97051
4.95483
4.96175
4.97372
4.98744
4.99386
4.99498
5.00124
5.0089
1
1
1
1
1
1
1
1
1
1
1
1
1
1
1
1
1
1
1
1
1
1
1
1
1
1
1
1
1
1
1
1
1
1
1
1
1
1
0.999999
0.999997
1
0.999872
1.00074
1.03034
1.13428
1.5259
2.16413
3.06341
3.80813
4.30072
4.57781
4.833
5.03241
5.07731
5.07378
5.03064
5.00646
4.99582
4.95991
4.91664
4.89353
4.88051
4.8858
4.90773
4.94477
4.98244
5.00062
5.0123
5.04226
5.06138
5.06443
5.03856
4.99447
4.97608
4.9716
4.97208
4.97393
4.97399
4.97714
4.98617
1
1
1
1
1
1
1
1
1
1
1
1
1
1
1
1
1
1
1
1
1
1
1
1
1
1
1
1
1
1
1
1
1
1
1
1
1
1
1
1
1
0.999998
0.999995
1.00001
0.999871
1.00386
1.03341
1.19039
1.82187
2.75427
3.47554
3.9079
4.46821
4.87723
4.96634
4.99027
5.01848
5.1013
5.09904
5.07013
5.00591
4.91798
4.88295
4.89222
4.90026
4.91511
4.93608
4.98475
5.03862
5.06028
5.05837
5.0251
5.01476
5.02006
5.01955
5.00879
4.99046
4.96894
4.96207
4.97038
1
1
1
1
1
1
1
1
1
1
1
1
1
1
1
1
1
1
1
1
1
1
1
1
1
1
1
1
1
1
1
1
1
1
1
1
1
1
1
1
1
1
1
1
0.999996
0.999998
0.999955
1.00012
1.01965
1.11051
1.45824
2.07573
2.95579
3.83085
4.31595
4.54432
4.77751
5.0205
5.10175
5.105
5.0806
5.03051
5.01957
5.00399
4.9571
4.92857
4.9266
4.93639
4.95056
4.96542
4.96549
4.96559
4.97583
5.00099
5.01858
5.02295
5.02165
5.00916
4.99766
4.99029
1
1
1
1
1
1
1
1
1
1
1
1
1
1
1
1
1
1
1
1
1
1
1
1
1
1
1
1
1
1
1
1
1
1
1
1
1
1
1
1
1
1
1
1
1
1
0.999999
0.999997
1.00002
0.999961
1.00366
1.03395
1.17613
1.79986
2.95633
3.76778
4.11278
4.5551
4.90644
4.94041
4.94709
4.99387
5.05153
5.08645
5.07101
5.04525
5.02321
4.99249
4.96862
4.94963
4.92508
4.91814
4.92127
4.96199
5.01239
5.02652
5.02784
5.01895
5.01119
5.0146
1
1
1
1
1
1
1
1
1
1
1
1
1
1
1
1
1
1
1
1
1
1
1
1
1
1
1
1
1
1
1
1
1
1
1
1
1
1
1
1
1
1
1
1
1
1
1
1
1
0.999997
0.999999
0.999963
1.00039
1.02437
1.17444
1.73769
2.50858
3.43069
4.29649
4.53513
4.59192
4.6487
4.84584
5.04649
5.08898
5.08669
5.08743
5.0783
5.08057
5.05729
4.98778
4.93599
4.92288
4.9539
4.97811
4.9821
4.97629
4.97814
4.9887
5.00609
1
1
1
1
1
1
1
1
1
1
1
1
1
1
1
1
1
1
1
1
1
1
1
1
1
1
1
1
1
1
1
1
1
1
1
1
1
1
1
1
1
1
1
1
1
1
1
1
1
1
1
0.999998
0.999998
0.999975
1.00037
1.01833
1.10417
1.39403
2.226
3.71799
4.34446
4.41124
4.61209
4.88219
4.91986
4.87083
4.89672
4.99253
5.06222
5.06167
5.01628
4.99014
4.99449
5.00402
5.00085
4.98698
4.96427
4.95705
4.96045
4.98713
1
1
1
1
1
1
1
1
1
1
1
1
1
1
1
1
1
1
1
1
1
1
1
1
1
1
1
1
1
1
1
1
1
1
1
1
1
1
1
1
1
1
1
1
1
1
1
1
1
1
1
1
1
0.999998
0.999997
1.00001
1.00007
1.00483
1.07232
1.48756
2.47666
3.43188
4.28135
4.85205
4.88542
4.75232
4.70006
4.75855
4.89048
4.98567
4.98779
4.98667
5.03175
5.07179
5.08385
5.06338
5.01702
4.97706
4.97276
4.98299
1
1
1
1
1
1
1
1
1
1
1
1
1
1
1
1
1
1
1
1
1
1
1
1
1
1
1
1
1
1
1
1
1
1
1
1
1
1
1
1
1
1
1
1
1
1
1
1
1
1
1
1
1
1
1
1
0.999999
0.999989
1.00008
1.00786
1.14109
1.50971
2.22134
3.40893
4.63988
4.83945
4.7881
4.85217
4.87315
4.90783
4.87628
4.81859
4.8716
4.99654
5.06951
5.05043
5.00256
4.98506
4.9902
5.00511
1
1
1
1
1
1
1
1
1
1
1
1
1
1
1
1
1
1
1
1
1
1
1
1
1
1
1
1
1
1
1
1
1
1
1
1
1
1
1
1
1
1
1
1
1
1
1
1
1
1
1
1
1
1
1
1
1
0.999999
0.999999
0.999985
1.00055
1.00734
1.08729
1.41101
2.51318
3.77669
4.45794
4.8462
4.99897
5.0149
4.96399
4.86235
4.87274
4.9164
4.9736
4.97853
4.94379
4.9371
4.98179
5.01921
1
1
1
1
1
1
1
1
1
1
1
1
1
1
1
1
1
1
1
1
1
1
1
1
1
1
1
1
1
1
1
1
1
1
1
1
1
1
1
1
1
1
1
1
1
1
1
1
1
1
1
1
1
1
1
1
1
1
1
0.999998
0.999998
0.999989
1.0002
1.00637
1.1628
1.87129
2.78618
3.69757
4.67531
5.00672
5.00015
4.99763
5.07256
5.08197
5.02951
4.97143
4.91119
4.86761
4.87415
4.92843
1
1
1
1
1
1
1
1
1
1
1
1
1
1
1
1
1
1
1
1
1
1
1
1
1
1
1
1
1
1
1
1
1
1
1
1
1
1
1
1
1
1
1
1
1
1
1
1
1
1
1
1
1
1
1
1
1
1
1
1
1
0.999999
0.999998
0.99999
1.00158
1.03053
1.26867
1.86568
3.02609
4.06799
4.52235
4.83442
5.02281
5.10406
5.11168
5.09012
5.03617
4.95273
4.90345
4.90554
1
1
1
1
1
1
1
1
1
1
1
1
1
1
1
1
1
1
1
1
1
1
1
1
1
1
1
1
1
1
1
1
1
1
1
1
1
1
1
1
1
1
1
1
1
1
1
1
1
1
1
1
1
1
1
1
1
1
1
1
1
1
1
0.999998
0.999997
1.00001
1.00357
1.0357
1.30219
2.33728
3.69306
4.28543
4.57203
4.88113
5.05947
5.08967
5.11008
5.07641
5.03845
5.02355
1
1
1
1
1
1
1
1
1
1
1
1
1
1
1
1
1
1
1
1
1
1
1
1
1
1
1
1
1
1
1
1
1
1
1
1
1
1
1
1
1
1
1
1
1
1
1
1
1
1
1
1
1
1
1
1
1
1
1
1
1
1
1
1
1
1
0.999996
1.00004
1.0063
1.11603
1.8095
3.0591
3.92865
4.47547
4.79436
4.8674
4.85628
4.92971
5.01936
5.06451
1
1
1
1
1
1
1
1
1
1
1
1
1
1
1
1
1
1
1
1
1
1
1
1
1
1
1
1
1
1
1
1
1
1
1
1
1
1
1
1
1
1
1
1
1
1
1
1
1
1
1
1
1
1
1
1
1
1
1
1
1
1
1
1
1
1
0.999999
0.999999
0.999997
1.00127
1.04808
1.3097
2.12058
3.39089
4.68973
4.83015
4.64876
4.68175
4.83171
4.98737
1
1
1
1
1
1
1
1
1
1
1
1
1
1
1
1
1
1
1
1
1
1
1
1
1
1
1
1
1
1
1
1
1
1
1
1
1
1
1
1
1
1
1
1
1
1
1
1
1
1
1
1
1
1
1
1
1
1
1
1
1
1
1
1
1
1
1
1
1
0.999997
1.00017
1.00544
1.09976
1.51728
2.89015
4.29086
4.62197
4.87135
4.95701
4.91661
1
1
1
1
1
1
1
1
1
1
1
1
1
1
1
1
1
1
1
1
1
1
1
1
1
1
1
1
1
1
1
1
1
1
1
1
1
1
1
1
1
1
1
1
1
1
1
1
1
1
1
1
1
1
1
1
1
1
1
1
1
1
1
1
1
1
1
1
1
0.999999
0.999999
0.999996
1.0007
1.02362
1.2688
2.38382
3.81779
4.70189
4.96772
4.99369
1
1
1
1
1
1
1
1
1
1
1
1
1
1
1
1
1
1
1
1
1
1
1
1
1
1
1
1
1
1
1
1
1
1
1
1
1
1
1
1
1
1
1
1
1
1
1
1
1
1
1
1
1
1
1
1
1
1
1
1
1
1
1
1
1
1
1
1
1
1
1
0.999999
0.999998
1.0001
1.00622
1.19949
2.06989
3.16601
4.41314
4.99268
1
1
1
1
1
1
1
1
1
1
1
1
1
1
1
1
1
1
1
1
1
1
1
1
1
1
1
1
1
1
1
1
1
1
1
1
1
1
1
1
1
1
1
1
1
1
1
1
1
1
1
1
1
1
1
1
1
1
1
1
1
1
1
1
1
1
1
1
1
1
1
1
1
0.999999
1.00002
1.00429
1.0886
1.5756
2.68827
4.32452
1
1
1
1
1
1
1
1
1
1
1
1
1
1
1
1
1
1
1
1
1
1
1
1
1
1
1
1
1
1
1
1
1
1
1
1
1
1
1
1
1
1
1
1
1
1
1
1
1
1
1
1
1
1
1
1
1
1
1
1
1
1
1
1
1
1
1
1
1
1
1
1
1
1
1
1
1.00087
1.02824
1.25821
3.00791
1
1
1
1
1
1
1
1
1
1
1
1
1
1
1
1
1
1
1
1
1
1
1
1
1
1
1
1
1
1
1
1
1
1
1
1
1
1
1
1
1
1
1
1
1
1
1
1
1
1
1
1
1
1
1
1
1
1
1
1
1
1
1
1
1
1
1
1
1
1
1
1
1
1
1
1
0.999999
1.00017
1.00711
1.73239
1
1
1
1
1
1
1
1
1
1
1
1
1
1
1
1
1
1
1
1
1
1
1
1
1
1
1
1
1
1
1
1
1
1
1
1
1
1
1
1
1
1
1
1
1
1
1
1
1
1
1
1
1
1
1
1
1
1
1
1
1
1
1
1
1
1
1
1
1
1
1
1
1
1
1
1
1
1
1.00013
1.13225
1
1
1
1
1
1
1
1
1
1
1
1
1
1
1
1
1
1
1
1
1
1
1
1
1
1
1
1
1
1
1
1
1
1
1
1
1
1
1
1
1
1
1
1
1
1
1
1
1
1
1
1
1
1
1
1
1
1
1
1
1
1
1
1
1
1
1
1
1
1
1
1
1
1
1
1
1
1
1
1.01053
1
1
1
1
1
1
1
1
1
1
1
1
1
1
1
1
1
1
1
1
1
1
1
1
1
1
1
1
1
1
1
1
1
1
1
1
1
1
1
1
1
1
1
1
1
1
1
1
1
1
1
1
1
1
1
1
1
1
1
1
1
1
1
1
1
1
1
1
1
1
1
1
1
1
1
1
1
1
1
1.00036
1
1
1
1
1
1
1
1
1
1
1
1
1
1
1
1
1
1
1
1
1
1
1
1
1
1
1
1
1
1
1
1
1
1
1
1
1
1
1
1
1
1
1
1
1
1
1
1
1
1
1
1
1
1
1
1
1
1
1
1
1
1
1
1
1
1
1
1
1
1
1
1
1
1
1
1
1
1
1
1.00001
1
1
1
1
1
1
1
1
1
1
1
1
1
1
1
1
1
1
1
1
1
1
1
1
1
1
1
1
1
1
1
1
1
1
1
1
1
1
1
1
1
1
1
1
1
1
1
1
1
1
1
1
1
1
1
1
1
1
1
1
1
1
1
1
1
1
1
1
1
1
1
1
1
1
1
1
1
1
1
1
1
1
1
1
1
1
1
1
1
1
1
1
1
1
1
1
1
1
1
1
1
1
1
1
1
1
1
1
1
1
1
1
1
1
1
1
1
1
1
1
1
1
1
1
1
1
1
1
1
1
1
1
1
1
1
1
1
1
1
1
1
1
1
1
1
1
1
1
1
1
1
1
1
1
1
1
1
1
1
1
1
1
1
1
1
1
1
1
1
1
1
1
1
1
1
1
1
1
1
1
1
1
1
1
1
1
1
1
1
1
1
1
1
1
1
1
1
1
1
1
1
1
1
1
1
1
1
1
1
1
1
1
1
1
1
1
1
1
1
1
1
1
1
1
1
1
1
1
1
1
1
1
1
1
1
1
1
1
1
1
1
1
1
1
1
1
1
1
1
1
1
1
1
1
1
1
1
1
1
1
1
1
1
1
1
1
1
1
1
1
1
1
1
1
1
1
1
1
1
1
1
1
1
1
1
1
1
1
1
1
1
1
1
1
1
1
1
1
1
1
1
1
1
1
1
1
1
1
1
1
1
1
1
1
1
1
1
1
1
1
)
;

boundaryField
{
    inlet
    {
        type            fixedValue;
        value           uniform 1;
    }
    outlet
    {
        type            zeroGradient;
    }
    bottom
    {
        type            symmetryPlane;
    }
    top
    {
        type            symmetryPlane;
    }
    obstacle
    {
        type            zeroGradient;
    }
    defaultFaces
    {
        type            empty;
    }
}


// ************************************************************************* //
