/*--------------------------------*- C++ -*----------------------------------*\
| =========                 |                                                 |
| \\      /  F ield         | OpenFOAM: The Open Source CFD Toolbox           |
|  \\    /   O peration     | Version:  2206                                  |
|   \\  /    A nd           | Website:  www.openfoam.com                      |
|    \\/     M anipulation  |                                                 |
\*---------------------------------------------------------------------------*/
FoamFile
{
    version     2.0;
    format      ascii;
    arch        "LSB;label=32;scalar=64";
    class       volScalarField;
    location    "0.1";
    object      p;
}
// * * * * * * * * * * * * * * * * * * * * * * * * * * * * * * * * * * * * * //

dimensions      [1 -1 -2 0 0 0 0];

internalField   nonuniform List<scalar> 
4800
(
1
1
1
1
1
1
1
1
1
1
1
1
1
1
1
1
1
1
1
1
1
1
1
1
1
1
1
1
1
1
1
1
1
1
1
1
1
1
1
1
1
1
1
1
1
1
1
1
1
1
1
1
1
1
1
1
1
1
1
1
1
1
1
1
1
1
1
1
1
1
1
1
1
1
1
1
1
1
1
1
1
1
1
1
1
1
1
1
1
1
1
1
1
1
1
1
1
1
1
1
1
1
1
1
1
1
1
1
1
1
1
1
1
1
1
1
1
1
1
1
1
1
1
1
1
1
1
1
1
1
1
1
1
1
1
1
1
1
1
1
1
1
1
1
1
1
1
1
1
1
1
1
1
1
1
1
1
1
1
1
1
1
1
1
1
1
1
1
1
1
1
1
1
1
1
1
1
1
1
1
1
1
1
1
1
1
1
1
1
1
1
1
1
1
1
1
1
1
1
1
1
1
1
1
1
1
1
1
1
1
1
1
1
1
1
1
1
1
1
1
1
1
1
1
1
1
1
1
1
1
1
1
1
1
1
1
1
1
1
1
1
1
1
1
1
1
1
1
1
1
1
1
1
1
1
1
1
1
1
1
1
1
1
1
1
1
1
1
1
1
1
1
1
1
1
1
1
1
1
1
1
1
1
1
1
1
1
1
1
1
1
1
1
1
1
1
1
1
1
1
1
1
1
1
1
1
1
1
1
1
1
1
1
1
1
1
1
1
1
1
1
1
1
1
1
1
1
1
1
1
1
1
1
1
1
1
1
1
1
1
1
1
1
1
1
1
1
1
1
1
1
1
1
1
1
1
1
1
1
1
1
1
1
1
1
1
1
1
1
1
1
1
1
1
1
1
1
1
1
1
1
1
1
1
1
1
1
1
1
1
1
1
1
1
1
1
1
1
1
1
1
1
1
1
1
1
1
1
1
1
1
1
1
1
1
1
1
1
1
1
1
1
1
1
1
1
1
1
1
1
1
1
1
1
1
1
1
1
1
1
1
1
1
1
1
1
1
1
1
1
1
1
1
1
1
1
1
1
1
1
1
1
1
1
1
1
1
1
1
1
1
1
1
1
1
1
1
1
1
1
1
1
1
1
1
1
1
1
1
1
1
1
1
1
1
1
1
1
1
1
1
1
1
1
1
1
1
1
1
1
1
1
1
1
1
1
1
1
1
1
1
1
1
1
1
1
1
1
1
1
1
1
1
1
1
1
1
1
1
1
1
1
1
1
1
1
1
1
1
1
1
1
1
1
1
1
1
1
1
1
1
1
1
1
1
1
1
1
1
1
1
1
1
1
1
1
1
1
1
1
1
1
1
1
1
1
1
1
1
1
1
1
1
1
1
1
1
1
1
1
1
1
1
1
1
1
1
1
1
1
1
1
1
1
1
1
1
1
1
1
1
1
1
1
1
1
1
1
1
1
1
1
1
1
1
1
1
1
1
1
1
1
1
1
1
1
1
1
1
1
1
1
1
1
1
1
1
1
1
1
1
1
1
1
1
1
1
1
1
1
1
1
1
1
1
1
1
1
1
1
1
1
1
1
1
1
1
1
1
1
1
1
1
1
1
1
1
1
1
1
1
1
1
1
1
1
1
1
1
1
1
1
1
1
1
1
1
1
1
1
1
1
1
1
1
1
1
1
1
1
1
1
1
1
1
1
1
1
1
1
1
1
1
1
1
1
1
1
1
1
1
1
1
1
1
1
1
1
1
1
1
1
1
1
1
1
1
1
1
1
1
1
1
1
1
1
1
1
1
1
1
1
1
1
1
1
1
1
1
1
1
1
1
1
1
1
1
1
1
1
1
1
1
1
1
1
1
1
1
1
1
1
1
1
1
1
1
1
1
1
1
1
1
1
1
1
1
1
1
1
1
1
1
1
1
1
1
1
1
1
1
1
1
1
1
1
1
1
1
1
1
1
1
1
1
1
1
1
1
1
1
1
1
1
1
1
1
1
1
1
1
1
1
1
1
1
1
1
1
1
1
1
1
1
1
1
1
1
1
1
1
1
1
1
1
1
1
1
1
1
1
1
1
1
1
1
1
1
1
1
1
1
1
1
1
1
1
1
1
1
1
1
1
1
1
1
1
1
1
1
1
1
1
1
1
1
1
1
1
1
1
1
1
1
1
1
1
1
1
1
1
1
1
1
1
1
1
1
1
1
1
1
1
1
1
1
1
1
1
1
1
1
1
1
1
1
1
1
1
1
1
1
1
1
1
1
1
1
1
1
1
1
1
1
1
1
1
1
1
1
1
1
1
1
1
1
1
1
1
1
1
1
1
1
1
1
1
1
1
1
1
1
1
1
1
1
1
1
1
1
1
1
1
1
1
1
1
1
1
1
1
1
1
1
1
1
1
1
1
1
1
1
1
1
1
1
1
1
1
1
1
1
1
1
1
1
1
1
1
1
1
1
1
1
1
1
1
1
1
1
1
1
1
1
1
1
1
1
1
1
1
1
1
1
1
1
1
1
1
1
1
1
1
1
1
1
1
1
1
1
1
1
1
1
1
1
1
1
1
1
1
1
1
1
1
1
1
1
1
1
1
1
1
1
1
1
1
1
1
1
1
1
1
1
1
1
1
1
1
1
1
1
1
1
1
1
1
1
1
1
1
1
1
1
1
1
1
1
1
1
1
1
1
1
1
1
1
1
1
1
1
1
1
1
1
1
1
1
1
1
1
1
1
1
1
1
1
1
1
1
1
1
1
1
1
1
1
1
1
1
1
1
1
1
1
1
1
1
1
1
1
1
1
1
1
1
1
1
1
1
1
1
1
1
1
1
1
1
1
1
1
1
1
1
1
1
1
1
1
1
1
1
1
1
1
1
1
1
1
1
1
1
1
1
1
1
1
1
1
1
1
1
1
1
1
1
1
1
1
1
1
1
1
1
1
1
1
1
1
1
1
1
1
1
1
1
1
1
1
1
1
1
1
1
1
1
1
1
1
1
1
1
1
1
1
1
1
1
1
1
1
1
1
1
1
1
1
1
1
1
1
1
1
1
1
1
1
1
1
1
1
1
1
1
1
1
1
1
1
1
1
1
1
1
1
1
1
1
1
1
1
1
1
1
1
1
1
1
1
1
1
1
1
1
1
1
1
1
1
1
1
1
1
1
1
1
1
1
1
1
1
1
1
1
1
1
1
1
1
1
1
1
1
1
1
1
1
1
1
1
1
1
1
1
1
1
1
1
1
1
1
1
1
1
1
1
1
1
1
1
1
1
1
1
1
1
1
1
1
1
1
1
1
1
1
1
1
1
1
1
1
1
1
1
1
1
1
1
1
1
1
1
1
1
1
1
1
1
1
1
1
1
1
1
1
1
1
1
1
1
1
1
1
1
1
1
1
1
1
1
1
1
1
1
1
1
1
1
1
1
1
1
1
1
1
1
1
1
1
1
1
1
1
1
1
1
1
1
1
1
1
1
1
1
1
1
1
1
1
1
1
1
1
1
1
1
1
1
1
1
1
1
1
1
1
1
1
1
1
1
1
1
1
1
1
1
1
1
1
1
1
1
1
1
1
1
1
1
1
1
1
1
1
1
1
1
1
1
1
1
1
1
1
1
1
1
1
1
1
1
1
1
1
1
1
1
1
1
1
1
1.2599
1.67281
2.18844
2.71551
3.31576
4.11679
4.71102
5.11882
5.63642
6.5424
6.98744
6.96287
7.09049
7.36203
7.32472
7.09473
6.69025
6.14701
5.6291
5.2646
5.10004
4.8173
4.63816
4.62527
4.60364
4.59864
4.63438
4.71373
4.85149
4.97528
4.9956
4.97258
4.9204
4.89249
4.90788
4.94124
4.97545
5.01432
5.04089
5.05209
5.0562
5.05211
5.04134
5.03007
5.01643
5.00207
4.98898
4.97898
4.97803
4.98841
5.02068
5.05841
5.08498
5.09374
5.0916
5.07805
5.05108
5.00667
4.96966
4.95475
4.95341
4.96311
4.99255
5.0425
5.08657
5.10745
5.11364
5.11241
5.10121
5.08513
5.06337
5.03207
5.00569
4.98705
4.97975
4.9824
4.99673
5.01974
5.05343
5.10276
1
0.999334
0.999101
1.03211
1.0498
1.09989
1.31182
1.60372
1.84184
2.18428
2.73911
3.29421
3.61026
4.18095
4.65107
4.82377
5.03324
5.12401
5.36342
5.42092
5.4794
5.46179
5.30608
5.21483
5.13862
5.0048
4.93552
4.898
4.86786
4.86698
4.8664
4.87075
4.8784
4.88843
4.91933
4.95329
4.96488
4.97452
4.97597
4.98475
5.00401
5.01724
5.02635
5.02998
5.03149
5.03566
5.03709
5.0314
5.01284
4.99507
4.99145
4.99635
5.01661
5.04375
5.06041
5.06118
5.05124
5.04371
5.03838
5.03078
5.02401
5.02317
5.02504
5.02479
5.02238
5.0233
5.02854
5.03751
5.05449
5.06502
5.06199
5.06131
5.06123
5.0578
5.0505
5.04504
5.04767
5.05378
5.05775
5.06135
1
1
0.999999
1
1
0.999995
1
1
0.999331
1.00013
1.02576
1.1385
1.30774
1.58903
2.2255
2.94149
3.80074
4.83442
5.3037
5.81238
5.86804
5.85786
5.81469
5.7085
5.5868
5.41502
5.14179
4.95824
4.82636
4.81065
4.85001
4.87596
4.88684
4.91917
4.95259
4.97892
4.99035
4.98308
4.95898
4.94256
4.94359
4.94987
4.97124
5.01883
5.05877
5.0701
5.07071
5.06377
5.04715
5.0217
4.99128
4.97823
4.97687
4.97858
4.99105
5.02118
5.05486
5.07258
5.07857
5.0798
5.07845
5.07378
5.06413
5.03988
5.00871
4.98185
4.96926
4.96842
4.98068
5.02224
5.07433
5.09831
5.10364
5.10436
5.10196
5.09513
5.08327
5.07682
5.07225
5.05597
1
1
1
1
1
1
1
1
1
1
1
1
1
0.999119
1.00552
1.05654
1.19981
1.72502
2.45002
3.42801
4.20731
4.67576
5.21322
5.33974
5.3386
5.32969
5.32879
5.2746
5.19106
5.0828
5.04635
5.03642
5.01445
4.97472
4.95002
4.93612
4.91359
4.90462
4.91104
4.91803
4.92261
4.92667
4.93927
4.9731
5.02807
5.07188
5.08799
5.08911
5.07844
5.04742
5.01129
4.99075
4.9803
4.97279
4.96943
4.97738
5.00754
5.04643
5.08096
5.10445
5.10986
5.10265
5.0878
5.06193
5.01881
4.98108
4.96866
4.9685
4.97518
4.99603
5.03722
5.08202
5.10967
5.12232
5.1245
5.11769
5.10451
5.08901
5.06815
5.04223
1
1
1
1
1
1
1
1
1
1
1
1
1
1
1
1
1
0.998896
1.01415
1.10683
1.51062
2.06381
2.81752
3.68465
4.35318
5.1761
5.39565
5.47214
5.48129
5.43438
5.34557
5.23213
5.10263
4.9339
4.90428
4.93124
4.9498
4.94562
4.93767
4.92946
4.91874
4.91331
4.91309
4.93374
4.96991
5.00654
5.03573
5.0513
5.05959
5.05925
5.04285
5.01966
5.0055
4.99662
4.98902
4.98375
4.98684
4.99923
5.01661
5.04165
5.07383
5.09402
5.09462
5.08095
5.05787
5.03381
5.00305
4.99725
5.00231
5.01455
5.03039
5.04708
5.06275
5.076
5.0853
5.08932
5.08474
5.07071
5.05942
5.05003
1
1
1
1
1
1
1
1
1
1
1
1
1
1
1
1
1
1
1
1
0.999416
1.00186
1.04146
1.31903
1.75999
2.44479
3.31563
4.0486
4.84454
4.99555
5.06999
5.04178
4.94179
4.96489
5.00272
5.04714
5.08847
5.09414
5.0709
5.03148
4.99528
4.94264
4.89524
4.89166
4.90233
4.92989
4.95788
4.98695
5.01687
5.04442
5.06264
5.07341
5.07564
5.07099
5.05772
5.02594
4.99985
4.99119
4.98764
4.98624
4.99661
5.02909
5.06205
5.07413
5.0779
5.07316
5.06492
5.05857
5.0605
5.05959
5.05714
5.05093
5.04079
5.02792
5.01615
5.01099
5.01501
5.03315
5.06293
5.07441
1
1
1
1
1
1
1
1
1
1
1
1
1
1
1
1
1
1
1
1
1
1
1
0.999997
0.999079
1.019
1.20783
1.53695
2.15508
2.95811
3.79544
4.66042
4.86837
5.08488
5.16648
5.13735
5.14244
5.14624
5.1305
5.0824
5.01346
4.95495
4.92397
4.92061
4.92378
4.91982
4.91838
4.92883
4.94321
4.96505
5.0071
5.06543
5.10376
5.11554
5.11565
5.10154
5.04204
4.97692
4.95377
4.94912
4.95175
4.96994
5.00799
5.04646
5.07275
5.08892
5.0955
5.09684
5.0983
5.09708
5.07731
5.04294
5.01322
4.99333
4.98357
4.98183
4.98638
5.00453
5.04386
5.08347
1
1
1
1
1
1
1
1
1
1
1
1
1
1
1
1
1
1
1
1
1
1
1
1
1
0.999999
1
0.999141
1.00939
1.13182
1.36123
1.92312
2.76933
3.66558
4.35779
4.53104
4.75434
4.83563
4.90111
4.94459
4.99887
5.04224
5.07702
5.0839
5.06893
5.03562
4.98759
4.922
4.88392
4.88308
4.89938
4.96576
5.06456
5.11251
5.11837
5.11879
5.10695
5.0624
5.00472
4.96982
4.96328
4.97554
4.99387
5.00369
5.02226
5.05003
5.07812
5.09913
5.10663
5.10337
5.0927
5.08012
5.05267
5.01893
4.9998
4.9972
5.00097
5.01069
5.03245
5.07296
1
1
1
1
1
1
1
1
1
1
1
1
1
1
1
1
1
1
1
1
1
1
1
1
1
1
1
1
1
1
0.999387
1.00536
1.09305
1.29191
1.83903
2.62799
3.46886
4.08451
4.47458
4.86455
4.94006
5.00294
5.10671
5.1425
5.1342
5.10349
5.05081
4.97258
4.88641
4.85509
4.86377
4.89732
4.95703
5.02895
5.08417
5.10155
5.10501
5.10262
5.09179
5.07067
5.0484
5.02978
5.0127
5.00382
5.00223
5.00347
5.00758
5.02008
5.04203
5.06775
5.08241
5.0818
5.07819
5.07309
5.05744
5.03405
5.0239
5.02652
5.04637
5.07026
1
1
1
1
1
1
1
1
1
1
1
1
1
1
1
1
1
1
1
1
1
1
1
1
1
1
1
1
1
1
1
1
1
0.999463
1.00617
1.07334
1.22794
1.75086
2.51425
3.45639
3.95345
4.28935
4.69373
4.89326
4.9767
5.01629
5.07678
5.09737
5.05966
4.98632
4.93233
4.91817
4.92484
4.94231
4.96222
4.98525
5.01847
5.06438
5.10018
5.11227
5.11998
5.12339
5.11151
5.07252
5.01113
4.97262
4.96585
4.96778
4.9779
4.99767
5.02721
5.06152
5.08602
5.09348
5.09223
5.08927
5.08159
5.07412
5.06776
5.0643
1
1
1
1
1
1
1
1
1
1
1
1
1
1
1
1
1
1
1
1
1
1
1
1
1
1
1
1
1
1
1
1
1
1
0.999999
1
0.999552
1.00565
1.05721
1.2389
1.80473
2.50757
3.36126
3.97947
4.45405
4.75978
4.96195
5.06554
5.0797
5.08763
5.08531
5.06141
5.00969
4.95218
4.90993
4.89109
4.89503
4.92152
4.99066
5.07636
5.12547
5.1394
5.1396
5.13001
5.09912
5.03903
4.98263
4.96109
4.96194
4.98134
5.00888
5.02673
5.04383
5.06996
5.08656
5.08735
5.0846
5.08049
5.07604
5.06498
1
1
1
1
1
1
1
1
1
1
1
1
1
1
1
1
1
1
1
1
1
1
1
1
1
1
1
1
1
1
1
1
1
1
1
1
1
0.999993
1
0.999644
1.00993
1.05699
1.2605
1.9084
2.72298
3.4345
3.91961
4.46052
4.8675
5.04356
5.05911
5.07856
5.12344
5.10516
5.03156
4.92514
4.87499
4.87955
4.90702
4.95847
5.00917
5.05649
5.09725
5.11467
5.11494
5.09862
5.0775
5.0499
5.02773
5.01323
5.00754
5.01331
5.027
5.03488
5.0418
5.0515
5.06083
5.06365
5.06227
5.05467
1
1
1
1
1
1
1
1
1
1
1
1
1
1
1
1
1
1
1
1
1
1
1
1
1
1
1
1
1
1
1
1
1
1
1
1
1
1
1
0.999997
0.999999
0.999965
0.999872
1.01607
1.08449
1.37977
1.97628
2.80885
3.62226
4.23395
4.63091
4.91223
5.07761
5.10447
5.10096
5.07271
5.0194
4.97366
4.94895
4.93866
4.93661
4.94364
4.95895
4.98634
5.02527
5.07
5.08824
5.09216
5.09932
5.09965
5.09013
5.06818
5.04165
5.02377
5.01999
5.02382
5.03277
5.03639
5.03452
5.03204
1
1
1
1
1
1
1
1
1
1
1
1
1
1
1
1
1
1
1
1
1
1
1
1
1
1
1
1
1
1
1
1
1
1
1
1
1
1
1
1
1
0.999999
0.999997
1
0.999886
1.00112
1.01889
1.12026
1.63962
2.46064
3.25545
3.82117
4.40395
4.86935
5.04159
5.04047
5.05752
5.13325
5.12979
5.09332
5.02389
4.94077
4.90462
4.90404
4.91621
4.94842
5.02343
5.09303
5.11819
5.12414
5.12078
5.10267
5.08228
5.06029
5.04477
5.03551
5.03041
5.02529
5.0168
5.01498
1
1
1
1
1
1
1
1
1
1
1
1
1
1
1
1
1
1
1
1
1
1
1
1
1
1
1
1
1
1
1
1
1
1
1
1
1
1
1
1
1
1
1
1
0.999996
0.999997
0.999995
0.999906
1.00928
1.0621
1.30344
1.8976
2.72577
3.61155
4.23274
4.57988
4.87175
5.08427
5.13978
5.14361
5.12619
5.08828
5.01988
4.95415
4.91452
4.91893
4.96106
5.01246
5.03601
5.05294
5.06921
5.07863
5.06911
5.05826
5.06139
5.07429
5.08243
5.07824
5.06386
5.02881
1
1
1
1
1
1
1
1
1
1
1
1
1
1
1
1
1
1
1
1
1
1
1
1
1
1
1
1
1
1
1
1
1
1
1
1
1
1
1
1
1
1
1
1
1
1
1
0.999997
1
0.999937
1.0011
1.01977
1.11781
1.60934
2.54998
3.45991
3.99958
4.52688
4.93046
5.06838
5.09841
5.09851
5.11935
5.11384
5.06363
5.01916
5.01768
5.0165
5.00846
5.00233
5.00451
5.00034
4.99747
5.00693
5.02886
5.05964
5.08716
5.10461
5.11183
5.09067
1
1
1
1
1
1
1
1
1
1
1
1
1
1
1
1
1
1
1
1
1
1
1
1
1
1
1
1
1
1
1
1
1
1
1
1
1
1
1
1
1
1
1
1
1
1
1
1
1
0.999997
0.999997
0.999978
1.00004
1.01085
1.08537
1.48482
2.24363
3.2009
4.00169
4.47375
4.69429
4.88314
5.04761
5.10276
5.11728
5.12699
5.13763
5.13764
5.10368
5.05011
4.99752
4.97
4.96059
4.96083
4.96764
4.98917
5.04899
5.11323
5.12972
5.11123
1
1
1
1
1
1
1
1
1
1
1
1
1
1
1
1
1
1
1
1
1
1
1
1
1
1
1
1
1
1
1
1
1
1
1
1
1
1
1
1
1
1
1
1
1
1
1
1
1
1
1
0.999999
0.999998
1.00001
0.999992
1.00674
1.05763
1.27813
2.02473
3.23982
3.98876
4.37123
4.63598
4.82032
4.96805
5.07206
5.12778
5.13009
5.12605
5.11024
5.09747
5.07209
5.02316
4.9742
4.95955
4.9737
5.01504
5.05089
5.08079
5.08421
1
1
1
1
1
1
1
1
1
1
1
1
1
1
1
1
1
1
1
1
1
1
1
1
1
1
1
1
1
1
1
1
1
1
1
1
1
1
1
1
1
1
1
1
1
1
1
1
1
1
1
1
1
1
0.999999
1.00001
0.999982
1.00195
1.04549
1.27316
1.99569
3.07261
4.17839
4.46757
4.64412
4.82311
4.92666
4.93091
4.96185
5.02682
5.09698
5.11446
5.09965
5.08596
5.06893
5.04536
5.03753
5.04397
5.05268
5.05604
1
1
1
1
1
1
1
1
1
1
1
1
1
1
1
1
1
1
1
1
1
1
1
1
1
1
1
1
1
1
1
1
1
1
1
1
1
1
1
1
1
1
1
1
1
1
1
1
1
1
1
1
1
1
1
1
0.999998
1
0.999996
1.00193
1.0515
1.25728
1.94994
3.12273
4.26396
4.87907
4.86565
4.79687
4.77563
4.80706
4.88566
4.99363
5.09569
5.12742
5.13249
5.12352
5.099
5.08039
5.0604
5.03737
1
1
1
1
1
1
1
1
1
1
1
1
1
1
1
1
1
1
1
1
1
1
1
1
1
1
1
1
1
1
1
1
1
1
1
1
1
1
1
1
1
1
1
1
1
1
1
1
1
1
1
1
1
1
1
1
1
1
1
0.999997
1.00003
1.0018
1.04626
1.3499
2.11027
3.2931
4.42655
4.91102
4.9437
4.87018
4.7998
4.835
4.95913
5.0391
5.0636
5.08424
5.09209
5.07798
5.05381
5.0358
1
1
1
1
1
1
1
1
1
1
1
1
1
1
1
1
1
1
1
1
1
1
1
1
1
1
1
1
1
1
1
1
1
1
1
1
1
1
1
1
1
1
1
1
1
1
1
1
1
1
1
1
1
1
1
1
1
1
1
1
1
0.999996
1.00006
1.00381
1.07278
1.36811
2.29101
3.59523
4.61883
4.89293
4.9109
5.00024
5.00057
4.99487
4.99727
5.01862
5.04075
5.03818
5.03172
5.02701
1
1
1
1
1
1
1
1
1
1
1
1
1
1
1
1
1
1
1
1
1
1
1
1
1
1
1
1
1
1
1
1
1
1
1
1
1
1
1
1
1
1
1
1
1
1
1
1
1
1
1
1
1
1
1
1
1
1
1
1
1
0.999999
1
0.999993
1.00019
1.00431
1.12524
1.63156
2.62912
3.72729
4.66955
5.03543
5.10108
5.10373
5.09548
5.07979
5.05035
5.02708
5.02289
5.03171
1
1
1
1
1
1
1
1
1
1
1
1
1
1
1
1
1
1
1
1
1
1
1
1
1
1
1
1
1
1
1
1
1
1
1
1
1
1
1
1
1
1
1
1
1
1
1
1
1
1
1
1
1
1
1
1
1
1
1
1
1
1
1
0.999999
0.999999
0.999992
1.00098
1.01544
1.20153
1.96127
3.21832
4.0541
4.64381
4.96807
5.08163
5.07256
5.05825
5.04191
5.04472
5.06568
1
1
1
1
1
1
1
1
1
1
1
1
1
1
1
1
1
1
1
1
1
1
1
1
1
1
1
1
1
1
1
1
1
1
1
1
1
1
1
1
1
1
1
1
1
1
1
1
1
1
1
1
1
1
1
1
1
1
1
1
1
1
1
1
1
0.999998
0.999999
0.999994
1.00287
1.05136
1.37961
2.42211
3.84015
4.60372
4.74375
4.81727
4.89633
4.93199
4.93817
4.98944
1
1
1
1
1
1
1
1
1
1
1
1
1
1
1
1
1
1
1
1
1
1
1
1
1
1
1
1
1
1
1
1
1
1
1
1
1
1
1
1
1
1
1
1
1
1
1
1
1
1
1
1
1
1
1
1
1
1
1
1
1
1
1
1
1
1
1
0.999999
0.999995
1.00013
1.00946
1.16565
1.7199
3.02399
4.23233
4.96184
5.04371
5.0288
4.9061
4.87523
1
1
1
1
1
1
1
1
1
1
1
1
1
1
1
1
1
1
1
1
1
1
1
1
1
1
1
1
1
1
1
1
1
1
1
1
1
1
1
1
1
1
1
1
1
1
1
1
1
1
1
1
1
1
1
1
1
1
1
1
1
1
1
1
1
1
1
1
0.999999
0.999999
1
1.00168
1.03401
1.39357
2.40276
3.69382
4.72053
5.08379
5.10506
5.04218
1
1
1
1
1
1
1
1
1
1
1
1
1
1
1
1
1
1
1
1
1
1
1
1
1
1
1
1
1
1
1
1
1
1
1
1
1
1
1
1
1
1
1
1
1
1
1
1
1
1
1
1
1
1
1
1
1
1
1
1
1
1
1
1
1
1
1
1
1
1
1
0.999997
1.00014
1.00995
1.17281
1.93802
3.13868
4.39407
5.06813
5.08179
1
1
1
1
1
1
1
1
1
1
1
1
1
1
1
1
1
1
1
1
1
1
1
1
1
1
1
1
1
1
1
1
1
1
1
1
1
1
1
1
1
1
1
1
1
1
1
1
1
1
1
1
1
1
1
1
1
1
1
1
1
1
1
1
1
1
1
1
1
1
1
1
0.999999
1.00001
1.00259
1.06353
1.52033
2.71052
4.17793
4.94226
1
1
1
1
1
1
1
1
1
1
1
1
1
1
1
1
1
1
1
1
1
1
1
1
1
1
1
1
1
1
1
1
1
1
1
1
1
1
1
1
1
1
1
1
1
1
1
1
1
1
1
1
1
1
1
1
1
1
1
1
1
1
1
1
1
1
1
1
1
1
1
1
1
1
0.999998
1.00056
1.0209
1.33592
2.35706
4.16993
1
1
1
1
1
1
1
1
1
1
1
1
1
1
1
1
1
1
1
1
1
1
1
1
1
1
1
1
1
1
1
1
1
1
1
1
1
1
1
1
1
1
1
1
1
1
1
1
1
1
1
1
1
1
1
1
1
1
1
1
1
1
1
1
1
1
1
1
1
1
1
1
1
1
1
0.999999
1.0001
1.01263
1.16287
2.73379
1
1
1
1
1
1
1
1
1
1
1
1
1
1
1
1
1
1
1
1
1
1
1
1
1
1
1
1
1
1
1
1
1
1
1
1
1
1
1
1
1
1
1
1
1
1
1
1
1
1
1
1
1
1
1
1
1
1
1
1
1
1
1
1
1
1
1
1
1
1
1
1
1
1
1
1
1
1.00006
1.00374
1.51148
1
1
1
1
1
1
1
1
1
1
1
1
1
1
1
1
1
1
1
1
1
1
1
1
1
1
1
1
1
1
1
1
1
1
1
1
1
1
1
1
1
1
1
1
1
1
1
1
1
1
1
1
1
1
1
1
1
1
1
1
1
1
1
1
1
1
1
1
1
1
1
1
1
1
1
1
1
1
1.00003
1.06373
1
1
1
1
1
1
1
1
1
1
1
1
1
1
1
1
1
1
1
1
1
1
1
1
1
1
1
1
1
1
1
1
1
1
1
1
1
1
1
1
1
1
1
1
1
1
1
1
1
1
1
1
1
1
1
1
1
1
1
1
1
1
1
1
1
1
1
1
1
1
1
1
1
1
1
1
1
1
1
1.0035
1
1
1
1
1
1
1
1
1
1
1
1
1
1
1
1
1
1
1
1
1
1
1
1
1
1
1
1
1
1
1
1
1
1
1
1
1
1
1
1
1
1
1
1
1
1
1
1
1
1
1
1
1
1
1
1
1
1
1
1
1
1
1
1
1
1
1
1
1
1
1
1
1
1
1
1
1
1
1
1.0001
1
1
1
1
1
1
1
1
1
1
1
1
1
1
1
1
1
1
1
1
1
1
1
1
1
1
1
1
1
1
1
1
1
1
1
1
1
1
1
1
1
1
1
1
1
1
1
1
1
1
1
1
1
1
1
1
1
1
1
1
1
1
1
1
1
1
1
1
1
1
1
1
1
1
1
1
1
1
1
1
1
1
1
1
1
1
1
1
1
1
1
1
1
1
1
1
1
1
1
1
1
1
1
1
1
1
1
1
1
1
1
1
1
1
1
1
1
1
1
1
1
1
1
1
1
1
1
1
1
1
1
1
1
1
1
1
1
1
1
1
1
1
1
1
1
1
1
1
1
1
1
1
1
1
1
1
1
1
1
1
1
1
1
1
1
1
1
1
1
1
1
1
1
1
1
1
1
1
1
1
1
1
1
1
1
1
1
1
1
1
1
1
1
1
1
1
1
1
1
1
1
1
1
1
1
1
1
1
1
1
1
1
1
1
1
1
1
1
1
1
1
1
1
1
1
1
1
1
1
1
1
1
1
1
1
1
1
1
1
1
1
1
1
1
1
1
1
1
1
1
1
1
1
1
1
1
1
1
1
1
1
1
1
1
1
1
1
1
1
1
1
1
1
1
1
1
1
1
1
1
1
1
1
1
1
1
1
1
1
1
1
1
1
1
1
1
1
1
1
1
1
1
1
1
1
1
1
1
1
1
1
1
1
1
1
1
1
1
1
1
1
1
1
1
1
1
1
1
1
1
1
1
1
1
1
1
1
1
1
1
1
1
1
1
1
1
1
1
1
1
1
1
1
1
1
1
1
1
1
1
1
1
1
1
1
1
1
1
1
1
1
1
1
1
1
1
1
1
1
1
1
1
1
1
1
1
1
1
1
1
1
1
1
1
1
1
1
1
1
1
)
;

boundaryField
{
    inlet
    {
        type            fixedValue;
        value           uniform 1;
    }
    outlet
    {
        type            zeroGradient;
    }
    bottom
    {
        type            symmetryPlane;
    }
    top
    {
        type            symmetryPlane;
    }
    obstacle
    {
        type            zeroGradient;
    }
    defaultFaces
    {
        type            empty;
    }
}


// ************************************************************************* //
