/*--------------------------------*- C++ -*----------------------------------*\
| =========                 |                                                 |
| \\      /  F ield         | OpenFOAM: The Open Source CFD Toolbox           |
|  \\    /   O peration     | Version:  2206                                  |
|   \\  /    A nd           | Website:  www.openfoam.com                      |
|    \\/     M anipulation  |                                                 |
\*---------------------------------------------------------------------------*/
FoamFile
{
    version     2.0;
    format      ascii;
    arch        "LSB;label=32;scalar=64";
    class       volScalarField;
    location    "0.2";
    object      p;
}
// * * * * * * * * * * * * * * * * * * * * * * * * * * * * * * * * * * * * * //

dimensions      [1 -1 -2 0 0 0 0];

internalField   nonuniform List<scalar> 
4800
(
1
1
1
1
1
1
1
1
1
1
1
1
1
1
1
1
1
1
1
1
1
1
1
1
1
1
1
1
1
1
1
1
1
1
1
1
1
1
1
1
1
1
1
1
1
1
1
1
1
1
1
1
1
1
1
1
1
1
1
1
1
1
1
1
1
1
1
1
1
1
1
1
1
1
1
1
1
1
1
1
1
1
1
1
1
1
1
1
1
1
1
1
1
1
1
1
1
1
1
1
1
1
1
1
1
1
1
1
1
1
1
1
1
1
1
1
1
1
1
1
1
1
1
1
1
1
1
1
1
1
1
1
1
1
1
1
1
1
1
1
1
1
1
1
1
1
1
1
1
1
1
1
1
1
1
1
1
1
1
1
1
1
1
1
1
1
1
1
1
1
1
1
1
1
1
1
1
1
1
1
1
1
1
1
1
1
1
1
1
1
1
1
1
1
1
1
1
1
1
1
1
1
1
1
1
1
1
1
1
1
1
1
1
1
1
1
1
1
1
1
1
1
1
1
1
1
1
1
1
1
1
1
1
1
1
1
1
1
1
1
1
1
1
1
1
1
1
1
1
1
1
1
1
1
1
1
1
1
1
1
1
1
1
1
1
1
1
1
1
1
1
1
1
1
1
1
1
1
1
1
1
1
1
1
1
1
1
1
1
1
1
1
1
1
1
1
1
1
1
1
1
1
1
1
1
1
1
1
1
1
1
1
1
1
1
1
1
1
1
1
1
1
1
1
1
1
1
1
1
1
1
1
1
1
1
1
1
1
1
1
1
1
1
1
1
1
1
1
1
1
1
1
1
1
1
1
1
1
1
1
1
1
1
1
1
1
1
1
1
1
1
1
1
1
1
1
1
1
1
1
1
1
1
1
1
1
1
1
1
1
1
1
1
1
1
1
1
1
1
1
1
1
1
1
1
1
1
1
1
1
1
1
1
1
1
1
1
1
1
1
1
1
1
1
1
1
1
1
1
1
1
1
1
1
1
1
1
1
1
1
1
1
1
1
1
1
1
1
1
1
1
1
1
1
1
1
1
1
1
1
1
1
1
1
1
1
1
1
1
1
1
1
1
1
1
1
1
1
1
1
1
1
1
1
1
1
1
1
1
1
1
1
1
1
1
1
1
1
1
1
1
1
1
1
1
1
1
1
1
1
1
1
1
1
1
1
1
1
1
1
1
1
1
1
1
1
1
1
1
1
1
1
1
1
1
1
1
1
1
1
1
1
1
1
1
1
1
1
1
1
1
1
1
1
1
1
1
1
1
1
1
1
1
1
1
1
1
1
1
1
1
1
1
1
1
1
1
1
1
1
1
1
1
1
1
1
1
1
1
1
1
1
1
1
1
1
1
1
1
1
1
1
1
1
1
1
1
1
1
1
1
1
1
1
1
1
1
1
1
1
1
1
1
1
1
1
1
1
1
1
1
1
1
1
1
1
1
1
1
1
1
1
1
1
1
1
1
1
1
1
1
1
1
1
1
1
1
1
1
1
1
1
1
1
1
1
1
1
1
1
1
1
1
1
1
1
1
1
1
1
1
1
1
1
1
1
1
1
1
1
1
1
1
1
1
1
1
1
1
1
1
1
1
1
1
1
1
1
1
1
1
1
1
1
1
1
1
1
1
1
1
1
1
1
1
1
1
1
1
1
1
1
1
1
1
1
1
1
1
1
1
1
1
1
1
1
1
1
1
1
1
1
1
1
1
1
1
1
1
1
1
1
1
1
1
1
1
1
1
1
1
1
1
1
1
1
1
1
1
1
1
1
1
1
1
1
1
1
1
1
1
1
1
1
1
1
1
1
1
1
1
1
1
1
1
1
1
1
1
1
1
1
1
1
1
1
1
1
1
1
1
1
1
1
1
1
1
1
1
1
1
1
1
1
1
1
1
1
1
1
1
1
1
1
1
1
1
1
1
1
1
1
1
1
1
1
1
1
1
1
1
1
1
1
1
1
1
1
1
1
1
1
1
1
1
1
1
1
1
1
1
1
1
1
1
1
1
1
1
1
1
1
1
1
1
1
1
1
1
1
1
1
1
1
1
1
1
1
1
1
1
1
1
1
1
1
1
1
1
1
1
1
1
1
1
1
1
1
1
1
1
1
1
1
1
1
1
1
1
1
1
1
1
1
1
1
1
1
1
1
1
1
1
1
1
1
1
1
1
1
1
1
1
1
1
1
1
1
1
1
1
1
1
1
1
1
1
1
1
1
1
1
1
1
1
1
1
1
1
1
1
1
1
1
1
1
1
1
1
1
1
1
1
1
1
1
1
1
1
1
1
1
1
1
1
1
1
1
1
1
1
1
1
1
1
1
1
1
1
1
1
1
1
1
1
1
1
1
1
1
1
1
1
1
1
1
1
1
1
1
1
1
1
1
1
1
1
1
1
1
1
1
1
1
1
1
1
1
1
1
1
1
1
1
1
1
1
1
1
1
1
1
1
1
1
1
1
1
1
1
1
1
1
1
1
1
1
1
1
1
1
1
1
1
1
1
1
1
1
1
1
1
1
1
1
1
1
1
1
1
1
1
1
1
1
1
1
1
1
1
1
1
1
1
1
1
1
1
1
1
1
1
1
1
1
1
1
1
1
1
1
1
1
1
1
1
1
1
1
1
1
1
1
1
1
1
1
1
1
1
1
1
1
1
1
1
1
1
1
1
1
1
1
1
1
1
1
1
1
1
1
1
1
1
1
1
1
1
1
1
1
1
1
1
1
1
1
1
1
1
1
1
1
1
1
1
1
1
1
1
1
1
1
1
1
1
1
1
1
1
1
1
1
1
1
1
1
1
1
1
1
1
1
1
1
1
1
1
1
1
1
1
1
1
1
1
1
1
1
1
1
1
1
1
1
1
1
1
1
1
1
1
1
1
1
1
1
1
1
1
1
1
1
1
1
1
1
1
1
1
1
1
1
1
1
1
1
1
1
1
1
1
1
1
1
1
1
1
1
1
1
1
1
1
1
1
1
1
1
1
1
1
1
1
1
1
1
1
1
1
1
1
1
1
1
1
1
1
1
1
1
1
1
1
1
1
1
1
1
1
1
1
1
1
1
1
1
1
1
1
1
1
1
1
1
1
1
1
1
1
1
1
1
1
1
1
1
1
1
1
1
1
1
1
1
1
1
1
1
1
1
1
1
1
1
1
1
1
1
1
1
1
1
1
1
1
1
1
1
1
1
1
1
1
1
1
1
1
1
1
1
1
1
1
1
1
1
1
1
1
1
1
1
1
1
1
1
1
1
1
1
1
1
1
1
1
1
1
1
1
1
1
1
1
1
1
1
1
1
1
1
1
1
1
1
1
1
1
1
1
1
1
1
1
1
1
1
1
1
1
1
1
1
1
1
1
1
1
1
1
1
1
1
1
1
1
1
1
1
1
1
1
1
1
1
1
1
1
1
1
1
1
1
1
1
1
1
1
1
1
1
1
1
1
1
1
1
1
1
1
1
1
1
1
1
1
1
1
1
1
1
1
1
1
1
1
1
1
1
1
1
1
1
1
1
1
1
1
1
1
1
1
1
1
1
1
1
1
1
1
1
1
1
1
1
1
1
1
1
1
1
1
1
1
1
1
1
1
1
1
1
1
1
1
1
1
1
1
1
1
1.26402
1.69098
2.18359
2.70604
3.35178
3.96157
4.35503
4.80162
5.54687
5.74669
5.84078
5.95746
5.92871
5.76653
5.38982
4.89753
4.55273
4.35603
4.12527
3.94416
3.94034
3.97631
3.99578
4.01496
4.04276
4.09079
4.15196
4.20026
4.21449
4.20928
4.19865
4.20307
4.21398
4.21646
4.2129
4.20761
4.20663
4.21989
4.24214
4.25779
4.2642
4.26267
4.25785
4.25106
4.24494
4.23754
4.22774
4.21738
4.20756
4.20235
4.20457
4.21369
4.22547
4.2381
4.24993
4.26029
4.26794
4.27221
4.27326
4.2719
4.26892
4.26352
4.25455
4.24318
4.23033
4.22171
4.22006
4.22214
4.22988
4.24233
4.25539
4.26486
4.27009
4.27334
4.27585
4.27814
4.27864
4.2768
4.27338
4.26555
0.999794
0.999176
1.0206
1.06859
1.13211
1.30924
1.60389
1.8589
2.22703
2.721
3.11352
3.53003
3.92212
4.19263
4.18171
4.35267
4.6169
4.61709
4.52746
4.38057
4.33508
4.32521
4.28215
4.22515
4.14879
4.10232
4.10648
4.12464
4.14675
4.15569
4.1698
4.19404
4.2192
4.22749
4.22688
4.22278
4.214
4.20753
4.20918
4.21375
4.21928
4.22684
4.23853
4.24606
4.24772
4.24719
4.24297
4.24084
4.24079
4.23792
4.23558
4.23421
4.23277
4.22827
4.2253
4.22415
4.22722
4.23427
4.24431
4.25586
4.26259
4.26372
4.26407
4.26341
4.26053
4.2534
4.24983
4.2506
4.25356
4.25612
4.25634
4.2541
4.2518
4.25052
4.25085
4.25319
4.2572
4.26087
4.26117
4.26027
1
1
1
1
0.999997
1
0.999537
1.00353
1.02221
1.11065
1.26414
1.58253
2.09422
2.79013
3.65105
4.20432
4.76872
4.88631
4.83522
4.76137
4.70062
4.63322
4.5409
4.35267
4.16577
4.086
4.09269
4.10974
4.12107
4.13461
4.15828
4.19087
4.22317
4.23548
4.23589
4.23217
4.22747
4.22002
4.21321
4.21066
4.20553
4.20114
4.204
4.21533
4.23022
4.24362
4.25275
4.25631
4.25779
4.26221
4.26445
4.26306
4.25541
4.2432
4.22758
4.21452
4.20876
4.20896
4.21212
4.2227
4.24117
4.25823
4.26829
4.27244
4.27252
4.26996
4.26871
4.27035
4.27255
4.27236
4.26839
4.25898
4.24963
4.24423
4.24197
4.24158
4.24218
4.24417
4.24632
4.24879
1
1
1
1
1
1
1
1
1
1
0.999827
0.999851
1.01491
1.08563
1.40148
1.91375
2.67733
3.46885
3.90613
4.35685
4.44281
4.43833
4.47019
4.492
4.42842
4.32911
4.29292
4.25572
4.21584
4.16923
4.12848
4.12368
4.14097
4.17778
4.20867
4.22414
4.23122
4.23202
4.23341
4.22908
4.21917
4.206
4.19408
4.19525
4.20132
4.21015
4.22361
4.24251
4.26372
4.2798
4.28434
4.28185
4.27173
4.25559
4.23699
4.22019
4.21221
4.2114
4.21295
4.21698
4.22311
4.23274
4.24492
4.25584
4.26526
4.27336
4.2784
4.28212
4.28364
4.28175
4.27579
4.26427
4.25108
4.24423
4.24202
4.24126
4.24153
4.24347
4.24498
4.24639
1
1
1
1
1
1
1
1
1
1
1
1
1
1
0.999418
1.00757
1.06349
1.3603
1.85177
2.5139
3.24162
3.7962
4.39792
4.56117
4.56821
4.55586
4.51621
4.45624
4.36866
4.2296
4.12251
4.1065
4.12097
4.15849
4.17954
4.19712
4.21191
4.22058
4.22834
4.23629
4.23973
4.23545
4.21921
4.21562
4.21608
4.21447
4.21104
4.21271
4.22317
4.23796
4.25288
4.26294
4.26455
4.26143
4.25783
4.253
4.24736
4.2438
4.24118
4.23789
4.23625
4.23739
4.23811
4.23912
4.24126
4.24456
4.24995
4.25767
4.26524
4.26837
4.26717
4.26167
4.2534
4.2506
4.25155
4.25288
4.25456
4.25619
4.25688
4.25607
1
1
1
1
1
1
1
1
1
1
1
1
1
1
1
0.999999
1
0.999672
1.00707
1.05333
1.31321
1.7621
2.41446
3.12391
3.65009
4.19419
4.29539
4.30446
4.33389
4.32112
4.25168
4.21925
4.22256
4.21829
4.20397
4.17188
4.1643
4.16307
4.17773
4.2089
4.23458
4.24126
4.25134
4.25612
4.25165
4.24036
4.22519
4.20968
4.20282
4.20329
4.20989
4.22097
4.23575
4.25112
4.26177
4.26702
4.26914
4.27124
4.27202
4.26999
4.26516
4.25754
4.24846
4.23906
4.23197
4.22911
4.22906
4.23319
4.23974
4.2444
4.2474
4.25003
4.2517
4.25397
4.25881
4.26447
4.26867
4.27083
4.27119
4.26904
1
1
1
1
1
1
1
1
1
1
1
1
1
1
1
1
1
1
1
1
0.999833
1.00572
1.04905
1.29656
1.71159
2.36277
3.04172
3.62895
4.19155
4.31738
4.38377
4.38336
4.35868
4.31478
4.23592
4.14321
4.11074
4.11387
4.14475
4.18295
4.21407
4.24022
4.25533
4.26508
4.26661
4.25339
4.23163
4.21529
4.20302
4.19968
4.20046
4.20231
4.20537
4.21481
4.2295
4.2471
4.2653
4.27898
4.2834
4.28169
4.2767
4.26703
4.25263
4.23897
4.22918
4.22577
4.22664
4.23147
4.23693
4.23902
4.23965
4.24188
4.24572
4.25039
4.25667
4.26416
4.26984
4.2717
4.27213
4.27073
1
1
1
1
1
1
1
1
1
1
1
1
1
1
1
1
1
1
1
1
1
0.999995
0.999979
1.00008
1.00561
1.05175
1.30695
1.71092
2.36308
3.02609
3.6523
4.13992
4.18795
4.21116
4.23818
4.19496
4.15429
4.15421
4.17224
4.1877
4.18983
4.20032
4.21487
4.23121
4.24757
4.26016
4.27038
4.27369
4.26195
4.24624
4.23193
4.21793
4.20917
4.20618
4.20828
4.21505
4.22694
4.24308
4.25601
4.26151
4.2639
4.26544
4.26546
4.25985
4.25387
4.24935
4.248
4.24994
4.25142
4.25114
4.25053
4.24975
4.24961
4.25204
4.25575
4.25967
4.26211
4.26197
4.26088
4.25967
1
1
1
1
1
1
1
1
1
1
1
1
1
1
1
1
1
1
1
1
1
1
1
1
0.999999
0.999929
1.00041
1.00698
1.06721
1.33634
1.76872
2.46674
3.0754
3.73291
4.11908
4.19957
4.26481
4.27347
4.25071
4.20614
4.1719
4.13486
4.12182
4.1273
4.16701
4.21806
4.25158
4.27068
4.28849
4.29773
4.29579
4.28479
4.26259
4.23444
4.21276
4.20588
4.20564
4.21113
4.21725
4.22038
4.2265
4.23643
4.24922
4.26012
4.26451
4.266
4.26991
4.27495
4.27577
4.27301
4.26548
4.25302
4.25033
4.25042
4.24974
4.24769
4.2457
4.24453
4.24275
4.24261
1
1
1
1
1
1
1
1
1
1
1
1
1
1
1
1
1
1
1
1
1
1
1
1
1
0.999999
0.999998
1
0.99993
1.00094
1.01037
1.09921
1.38815
1.83514
2.53869
3.18011
3.85442
4.16984
4.16534
4.18767
4.20928
4.17436
4.12191
4.10805
4.11131
4.13396
4.1662
4.20957
4.25257
4.27816
4.28985
4.29546
4.29745
4.29253
4.27426
4.24967
4.2317
4.21964
4.21266
4.21245
4.21506
4.22146
4.22927
4.23594
4.24506
4.25391
4.26429
4.27368
4.27536
4.27266
4.26653
4.26072
4.25277
4.24579
4.24358
4.24295
4.24369
4.24317
4.2416
4.24135
1
1
1
1
1
1
1
1
1
1
1
1
1
1
1
1
1
1
1
1
1
1
1
1
1
1
1
1
0.999998
0.999998
0.999998
0.999975
1.00193
1.01596
1.15116
1.48936
2.07273
2.77381
3.388
3.9411
4.1797
4.21297
4.22074
4.20293
4.15372
4.13546
4.13322
4.14007
4.16005
4.18216
4.21126
4.24248
4.2674
4.27873
4.28355
4.28227
4.28243
4.27604
4.26202
4.24119
4.22513
4.22128
4.22328
4.22643
4.22882
4.23303
4.2392
4.24871
4.25674
4.25776
4.25518
4.25282
4.25327
4.25691
4.2591
4.25875
4.25786
4.2545
4.24824
4.24339
1
1
1
1
1
1
1
1
1
1
1
1
1
1
1
1
1
1
1
1
1
1
1
1
1
1
1
1
1
1
1
0.999999
1
0.999976
1.00022
1.00453
1.04054
1.25485
1.63564
2.28377
2.98001
3.6374
4.091
4.15855
4.17675
4.24444
4.23526
4.18871
4.15641
4.13816
4.13794
4.14892
4.16679
4.19623
4.2331
4.26808
4.28642
4.2929
4.29003
4.28416
4.27887
4.27216
4.26239
4.24668
4.23141
4.22482
4.22835
4.23415
4.2374
4.23713
4.23463
4.23533
4.24055
4.25183
4.26033
4.26316
4.26293
4.26268
4.26229
4.25709
1
1
1
1
1
1
1
1
1
1
1
1
1
1
1
1
1
1
1
1
1
1
1
1
1
1
1
1
1
1
1
1
1
0.999999
0.999998
1
0.999968
1.0011
1.00985
1.08914
1.40394
1.9302
2.66353
3.29248
3.85108
4.14305
4.23459
4.25102
4.26004
4.22704
4.18222
4.15144
4.13975
4.14328
4.1632
4.18576
4.21261
4.24639
4.27023
4.2793
4.28378
4.28633
4.2846
4.2791
4.26777
4.25446
4.24356
4.23719
4.23219
4.22665
4.2225
4.22385
4.23041
4.23946
4.24953
4.2559
4.25838
4.26141
4.26401
4.26284
1
1
1
1
1
1
1
1
1
1
1
1
1
1
1
1
1
1
1
1
1
1
1
1
1
1
1
1
1
1
1
1
1
1
1
1
0.999998
0.999999
0.999987
1.00009
1.00405
1.03183
1.23633
1.68263
2.32233
3.00682
3.64099
4.0894
4.20953
4.22505
4.26434
4.27642
4.25366
4.20805
4.18236
4.17483
4.17756
4.19018
4.20549
4.21125
4.22399
4.24524
4.26496
4.27154
4.26814
4.2659
4.27182
4.27295
4.2688
4.25775
4.24187
4.22947
4.22793
4.23393
4.24433
4.25099
4.25283
4.25518
4.25795
4.25946
1
1
1
1
1
1
1
1
1
1
1
1
1
1
1
1
1
1
1
1
1
1
1
1
1
1
1
1
1
1
1
1
1
1
1
1
1
1
0.999999
0.999999
1
0.999981
1.00158
1.01512
1.10438
1.47598
2.09268
2.83832
3.43639
3.90594
4.16825
4.24761
4.26838
4.28316
4.28629
4.27576
4.24799
4.21812
4.19923
4.18799
4.18725
4.19461
4.20121
4.212
4.23022
4.2519
4.26652
4.27356
4.27349
4.2687
4.25969
4.25171
4.24804
4.24989
4.25303
4.25377
4.2526
4.25156
4.25089
4.24917
1
1
1
1
1
1
1
1
1
1
1
1
1
1
1
1
1
1
1
1
1
1
1
1
1
1
1
1
1
1
1
1
1
1
1
1
1
1
1
1
1
0.999999
1
0.999986
1.00029
1.0083
1.05585
1.34754
1.94671
2.6947
3.30523
3.77958
4.09793
4.24685
4.26661
4.29193
4.32029
4.31919
4.29824
4.26093
4.223
4.19917
4.19059
4.19037
4.19878
4.21381
4.22971
4.24518
4.25979
4.263
4.25689
4.25529
4.25825
4.26391
4.26672
4.26527
4.26099
4.25702
4.25329
4.24602
1
1
1
1
1
1
1
1
1
1
1
1
1
1
1
1
1
1
1
1
1
1
1
1
1
1
1
1
1
1
1
1
1
1
1
1
1
1
1
1
1
1
1
0.999999
0.999999
0.999992
1.00005
1.00548
1.04195
1.24043
1.80148
2.6234
3.2844
3.73726
3.98141
4.15699
4.27272
4.30984
4.31614
4.30509
4.28572
4.28243
4.27107
4.24765
4.22671
4.21791
4.22572
4.23498
4.23686
4.23348
4.2305
4.23417
4.24594
4.25571
4.25778
4.25621
4.2546
4.25524
4.25591
4.25239
1
1
1
1
1
1
1
1
1
1
1
1
1
1
1
1
1
1
1
1
1
1
1
1
1
1
1
1
1
1
1
1
1
1
1
1
1
1
1
1
1
1
1
1
1
0.999999
0.999999
0.999999
1.00002
1.00279
1.03364
1.19462
1.743
2.64154
3.36597
3.70993
3.94884
4.14576
4.18959
4.21007
4.24536
4.28698
4.3027
4.29116
4.27991
4.2761
4.27363
4.26941
4.2584
4.23343
4.21823
4.21894
4.2293
4.24024
4.24249
4.24154
4.2426
4.24582
4.24593
4.24587
1
1
1
1
1
1
1
1
1
1
1
1
1
1
1
1
1
1
1
1
1
1
1
1
1
1
1
1
1
1
1
1
1
1
1
1
1
1
1
1
1
1
1
1
1
1
1
1
1
0.999999
1.00002
1.00191
1.03568
1.19605
1.75087
2.61678
3.51058
3.88725
4.0026
4.02178
4.06168
4.14006
4.22559
4.26985
4.28294
4.29093
4.29258
4.29652
4.28864
4.2655
4.24394
4.23515
4.23869
4.24245
4.24286
4.23979
4.23593
4.23405
4.23352
4.23743
1
1
1
1
1
1
1
1
1
1
1
1
1
1
1
1
1
1
1
1
1
1
1
1
1
1
1
1
1
1
1
1
1
1
1
1
1
1
1
1
1
1
1
1
1
1
1
1
1
1
1
0.999997
1.00005
1.00191
1.04072
1.21796
1.76531
2.68131
3.72511
4.0231
4.02796
4.07918
4.14765
4.18618
4.18226
4.18716
4.21188
4.24912
4.26368
4.25
4.24285
4.24717
4.25794
4.26624
4.26708
4.25974
4.24539
4.23738
4.23683
4.2423
1
1
1
1
1
1
1
1
1
1
1
1
1
1
1
1
1
1
1
1
1
1
1
1
1
1
1
1
1
1
1
1
1
1
1
1
1
1
1
1
1
1
1
1
1
1
1
1
1
1
1
1
1
0.999997
1.0001
1.00241
1.04491
1.26504
1.97916
2.96156
3.6759
4.1546
4.25785
4.26817
4.18336
4.1582
4.17127
4.18308
4.20047
4.20244
4.19515
4.20716
4.24532
4.27104
4.27156
4.26199
4.25326
4.24798
4.25024
4.25817
1
1
1
1
1
1
1
1
1
1
1
1
1
1
1
1
1
1
1
1
1
1
1
1
1
1
1
1
1
1
1
1
1
1
1
1
1
1
1
1
1
1
1
1
1
1
1
1
1
1
1
1
1
0.999999
0.999999
0.999996
1.00016
1.00429
1.07671
1.44653
2.1671
3.0847
3.92853
4.23227
4.23728
4.25498
4.30465
4.28491
4.24198
4.21127
4.19454
4.19992
4.22151
4.24
4.24579
4.23989
4.23688
4.23974
4.24908
4.25956
1
1
1
1
1
1
1
1
1
1
1
1
1
1
1
1
1
1
1
1
1
1
1
1
1
1
1
1
1
1
1
1
1
1
1
1
1
1
1
1
1
1
1
1
1
1
1
1
1
1
1
1
1
1
1
0.999999
0.999999
0.999996
1.00056
1.01122
1.13232
1.60095
2.47691
3.40797
3.88497
4.14931
4.28221
4.31273
4.3064
4.2813
4.26201
4.25932
4.25483
4.24345
4.23597
4.22686
4.21793
4.2124
4.21271
4.22852
1
1
1
1
1
1
1
1
1
1
1
1
1
1
1
1
1
1
1
1
1
1
1
1
1
1
1
1
1
1
1
1
1
1
1
1
1
1
1
1
1
1
1
1
1
1
1
1
1
1
1
1
1
1
1
1
1
0.999999
0.999999
1
1.00169
1.02356
1.21561
1.955
3.05776
3.57119
3.92599
4.18336
4.20718
4.21582
4.25877
4.29618
4.30189
4.29856
4.29767
4.28297
4.26065
4.23023
4.21403
4.21883
1
1
1
1
1
1
1
1
1
1
1
1
1
1
1
1
1
1
1
1
1
1
1
1
1
1
1
1
1
1
1
1
1
1
1
1
1
1
1
1
1
1
1
1
1
1
1
1
1
1
1
1
1
1
1
1
1
1
1
1
0.999998
1.00005
1.00537
1.07355
1.51913
2.40134
3.44312
3.96852
4.05658
4.07407
4.11876
4.17576
4.21644
4.25352
4.27946
4.29211
4.29468
4.28751
4.26081
4.23406
1
1
1
1
1
1
1
1
1
1
1
1
1
1
1
1
1
1
1
1
1
1
1
1
1
1
1
1
1
1
1
1
1
1
1
1
1
1
1
1
1
1
1
1
1
1
1
1
1
1
1
1
1
1
1
1
1
1
1
1
1
1
1
1.00068
1.0259
1.20736
1.80413
2.90182
3.87422
4.16122
4.17535
4.12962
4.11657
4.1223
4.15307
4.20361
4.25072
4.28189
4.28169
4.25973
1
1
1
1
1
1
1
1
1
1
1
1
1
1
1
1
1
1
1
1
1
1
1
1
1
1
1
1
1
1
1
1
1
1
1
1
1
1
1
1
1
1
1
1
1
1
1
1
1
1
1
1
1
1
1
1
1
1
1
1
1
1
1
0.999999
1.00012
1.00391
1.06873
1.4254
2.48816
3.49155
4.11514
4.27002
4.28212
4.20819
4.15195
4.15816
4.19742
4.23625
4.24988
4.24912
1
1
1
1
1
1
1
1
1
1
1
1
1
1
1
1
1
1
1
1
1
1
1
1
1
1
1
1
1
1
1
1
1
1
1
1
1
1
1
1
1
1
1
1
1
1
1
1
1
1
1
1
1
1
1
1
1
1
1
1
1
1
1
1
1
1
1.0007
1.01978
1.28627
2.07449
3.10294
3.94627
4.23059
4.28463
4.28447
4.24326
4.21074
4.21379
4.22965
4.24304
1
1
1
1
1
1
1
1
1
1
1
1
1
1
1
1
1
1
1
1
1
1
1
1
1
1
1
1
1
1
1
1
1
1
1
1
1
1
1
1
1
1
1
1
1
1
1
1
1
1
1
1
1
1
1
1
1
1
1
1
1
1
1
1
1
1
0.999999
1.00016
1.00838
1.14499
1.72166
2.73837
3.58508
4.13377
4.28342
4.24069
4.21977
4.24207
4.2785
4.29009
1
1
1
1
1
1
1
1
1
1
1
1
1
1
1
1
1
1
1
1
1
1
1
1
1
1
1
1
1
1
1
1
1
1
1
1
1
1
1
1
1
1
1
1
1
1
1
1
1
1
1
1
1
1
1
1
1
1
1
1
1
1
1
1
1
1
1
1
1.00002
1.00381
1.04921
1.42385
2.43154
3.64151
3.99734
4.02121
4.06394
4.13231
4.21123
4.28319
1
1
1
1
1
1
1
1
1
1
1
1
1
1
1
1
1
1
1
1
1
1
1
1
1
1
1
1
1
1
1
1
1
1
1
1
1
1
1
1
1
1
1
1
1
1
1
1
1
1
1
1
1
1
1
1
1
1
1
1
1
1
1
1
1
1
1
1
1
1.00001
1.00049
1.02561
1.2552
2.1335
3.24775
4.11147
4.19548
4.09586
4.07013
4.1496
1
1
1
1
1
1
1
1
1
1
1
1
1
1
1
1
1
1
1
1
1
1
1
1
1
1
1
1
1
1
1
1
1
1
1
1
1
1
1
1
1
1
1
1
1
1
1
1
1
1
1
1
1
1
1
1
1
1
1
1
1
1
1
1
1
1
1
1
1
1
1
1.00027
1.00984
1.17061
1.8189
3.18385
4.0614
4.12331
4.22314
4.22915
1
1
1
1
1
1
1
1
1
1
1
1
1
1
1
1
1
1
1
1
1
1
1
1
1
1
1
1
1
1
1
1
1
1
1
1
1
1
1
1
1
1
1
1
1
1
1
1
1
1
1
1
1
1
1
1
1
1
1
1
1
1
1
1
1
1
1
1
1
1
1
1
1.00007
1.00478
1.11504
1.70425
2.94965
3.78968
4.19823
4.30764
1
1
1
1
1
1
1
1
1
1
1
1
1
1
1
1
1
1
1
1
1
1
1
1
1
1
1
1
1
1
1
1
1
1
1
1
1
1
1
1
1
1
1
1
1
1
1
1
1
1
1
1
1
1
1
1
1
1
1
1
1
1
1
1
1
1
1
1
1
1
1
1
1
1.00003
1.00335
1.06628
1.63666
2.86226
3.61332
4.11941
1
1
1
1
1
1
1
1
1
1
1
1
1
1
1
1
1
1
1
1
1
1
1
1
1
1
1
1
1
1
1
1
1
1
1
1
1
1
1
1
1
1
1
1
1
1
1
1
1
1
1
1
1
1
1
1
1
1
1
1
1
1
1
1
1
1
1
1
1
1
1
1
1
1
1.00001
1.00171
1.05587
1.53123
2.55685
3.75776
1
1
1
1
1
1
1
1
1
1
1
1
1
1
1
1
1
1
1
1
1
1
1
1
1
1
1
1
1
1
1
1
1
1
1
1
1
1
1
1
1
1
1
1
1
1
1
1
1
1
1
1
1
1
1
1
1
1
1
1
1
1
1
1
1
1
1
1
1
1
1
1
1
1
1
1.00001
1.0011
1.04328
1.34283
2.85997
1
1
1
1
1
1
1
1
1
1
1
1
1
1
1
1
1
1
1
1
1
1
1
1
1
1
1
1
1
1
1
1
1
1
1
1
1
1
1
1
1
1
1
1
1
1
1
1
1
1
1
1
1
1
1
1
1
1
1
1
1
1
1
1
1
1
1
1
1
1
1
1
1
1
1
1
1
1.00099
1.02017
1.8451
1
1
1
1
1
1
1
1
1
1
1
1
1
1
1
1
1
1
1
1
1
1
1
1
1
1
1
1
1
1
1
1
1
1
1
1
1
1
1
1
1
1
1
1
1
1
1
1
1
1
1
1
1
1
1
1
1
1
1
1
1
1
1
1
1
1
1
1
1
1
1
1
1
1
1
1
1
1.00001
1.00078
1.23705
1
1
1
1
1
1
1
1
1
1
1
1
1
1
1
1
1
1
1
1
1
1
1
1
1
1
1
1
1
1
1
1
1
1
1
1
1
1
1
1
1
1
1
1
1
1
1
1
1
1
1
1
1
1
1
1
1
1
1
1
1
1
1
1
1
1
1
1
1
1
1
1
1
1
1
1
1
1
1.00003
1.04325
1
1
1
1
1
1
1
1
1
1
1
1
1
1
1
1
1
1
1
1
1
1
1
1
1
1
1
1
1
1
1
1
1
1
1
1
1
1
1
1
1
1
1
1
1
1
1
1
1
1
1
1
1
1
1
1
1
1
1
1
1
1
1
1
1
1
1
1
1
1
1
1
1
1
1
1
1
1
1
1.00517
)
;

boundaryField
{
    inlet
    {
        type            fixedValue;
        value           uniform 1;
    }
    outlet
    {
        type            zeroGradient;
    }
    bottom
    {
        type            symmetryPlane;
    }
    top
    {
        type            symmetryPlane;
    }
    obstacle
    {
        type            zeroGradient;
    }
    defaultFaces
    {
        type            empty;
    }
}


// ************************************************************************* //
