/*--------------------------------*- C++ -*----------------------------------*\
| =========                 |                                                 |
| \\      /  F ield         | OpenFOAM: The Open Source CFD Toolbox           |
|  \\    /   O peration     | Version:  2206                                  |
|   \\  /    A nd           | Website:  www.openfoam.com                      |
|    \\/     M anipulation  |                                                 |
\*---------------------------------------------------------------------------*/
FoamFile
{
    version     2.0;
    format      ascii;
    arch        "LSB;label=32;scalar=64";
    class       volVectorField;
    location    "0.06";
    object      U;
}
// * * * * * * * * * * * * * * * * * * * * * * * * * * * * * * * * * * * * * //

dimensions      [0 1 -1 0 0 0 0];

internalField   nonuniform List<vector> 
4800
(
(6.19192 -1.55694e-15 0)
(6.19192 2.35041e-15 0)
(6.19192 2.62379e-15 0)
(6.19192 -2.23372e-15 0)
(6.19192 7.23458e-16 0)
(6.19192 -8.91487e-15 0)
(6.19192 1.08385e-14 0)
(6.19192 -1.33356e-17 0)
(6.19192 -2.71247e-14 0)
(6.19192 -6.23841e-14 0)
(6.19192 -6.39844e-14 0)
(6.19192 -3.70831e-14 0)
(6.19192 7.36727e-14 0)
(6.19192 1.23721e-13 0)
(6.19192 1.18761e-13 0)
(6.19192 9.52298e-14 0)
(6.19192 6.48812e-14 0)
(6.19192 5.39927e-14 0)
(6.19192 1.95767e-14 0)
(6.19192 -6.29442e-15 0)
(6.19192 -1.76631e-14 0)
(6.19192 -1.06152e-14 0)
(6.19192 -2.55944e-14 0)
(6.19192 -5.91869e-14 0)
(6.19192 -5.9607e-14 0)
(6.19192 -3.31324e-14 0)
(6.19192 6.29109e-15 0)
(6.19192 3.54328e-14 0)
(6.19192 3.95802e-14 0)
(6.19192 -6.46778e-16 0)
(6.19192 -1.87466e-14 0)
(6.19192 -7.05288e-14 0)
(6.19192 -9.11291e-14 0)
(6.19192 -6.80718e-14 0)
(6.19192 -7.39661e-14 0)
(6.19192 -8.06306e-14 0)
(6.19192 -8.99689e-14 0)
(6.19192 -1.14763e-13 0)
(6.19192 -6.52113e-14 0)
(6.19192 -3.88634e-14 0)
(6.19192 -1.84032e-15 0)
(6.19192 3.14388e-15 0)
(6.19192 3.83733e-15 0)
(6.19192 -3.89734e-15 0)
(6.19192 -9.665e-15 0)
(6.19192 -1.70463e-14 0)
(6.19192 5.00753e-15 0)
(6.19192 1.37824e-14 0)
(6.19192 -5.34926e-14 0)
(6.19192 -1.24935e-13 0)
(6.19192 -1.5353e-13 0)
(6.19192 -6.9652e-14 0)
(6.19192 3.09653e-14 0)
(6.19192 7.09689e-14 0)
(6.19192 7.47529e-14 0)
(6.19192 5.50462e-14 0)
(6.19192 2.6798e-14 0)
(6.19192 2.73681e-14 0)
(6.19192 1.24221e-14 0)
(6.19192 -6.32443e-15 0)
(6.19192 -1.7643e-14 0)
(6.19192 -3.74498e-14 0)
(6.19192 -6.0037e-14 0)
(6.19192 -4.49344e-14 0)
(6.19192 -3.21889e-14 0)
(6.19192 -3.13621e-14 0)
(6.19192 2.17371e-15 0)
(6.19192 2.47076e-14 0)
(6.19192 2.79982e-14 0)
(6.19192 9.92838e-15 0)
(6.19192 -9.72868e-14 0)
(6.19192 -1.25975e-13 0)
(6.19192 -1.33233e-13 0)
(6.19192 -1.04751e-13 0)
(6.19192 -6.98521e-14 0)
(6.19192 -4.78449e-14 0)
(6.19192 -9.62833e-14 0)
(6.19192 -1.94597e-13 0)
(6.19192 -2.17084e-13 0)
(6.19192 -2.00136e-13 0)
(6.19192 1.15987e-14 0)
(6.19192 1.08985e-14 0)
(6.19192 -1.17554e-14 0)
(6.19192 -2.2904e-14 0)
(6.19192 -3.78865e-14 0)
(6.19192 -2.56444e-14 0)
(6.19192 4.53412e-15 0)
(6.19192 1.936e-14 0)
(6.19192 3.63329e-14 0)
(6.19192 7.70133e-16 0)
(6.19192 8.56815e-16 0)
(6.19192 6.08105e-15 0)
(6.19192 2.46376e-14 0)
(6.19192 5.28525e-14 0)
(6.19192 2.83582e-14 0)
(6.19192 -1.30356e-14 0)
(6.19192 -4.17372e-14 0)
(6.19192 -5.59997e-14 0)
(6.19192 -3.71731e-14 0)
(6.19192 -3.50294e-14 0)
(6.19192 -4.97253e-14 0)
(6.19192 -7.05922e-14 0)
(6.19192 -4.59179e-14 0)
(6.19192 1.95534e-14 0)
(6.19192 3.34624e-14 0)
(6.19192 -1.3519e-14 0)
(6.19192 -7.88736e-14 0)
(6.19192 2.62645e-14 0)
(6.19192 5.0122e-14 0)
(6.19192 5.39493e-14 0)
(6.19192 1.59528e-14 0)
(6.19192 -1.65095e-14 0)
(6.19192 2.12137e-14 0)
(6.19192 4.17039e-14 0)
(6.19192 9.24326e-14 0)
(6.19192 1.53306e-13 0)
(6.19192 5.64898e-14 0)
(6.19192 -5.98203e-14 0)
(6.19192 -1.42415e-13 0)
(6.19192 -1.26302e-13 0)
(6.19192 6.19774e-15 0)
(6.19192 3.72798e-14 0)
(6.19192 2.03835e-14 0)
(6.19192 9.04156e-15 0)
(6.19192 7.46129e-15 0)
(6.19192 1.86466e-14 0)
(6.19192 1.99168e-14 0)
(6.19192 3.857e-14 0)
(6.19192 7.37827e-14 0)
(6.19192 1.18414e-13 0)
(6.19192 1.50103e-13 0)
(6.19192 1.42898e-13 0)
(6.19192 1.41654e-13 0)
(6.19192 3.98035e-14 0)
(6.19192 -3.89867e-14 0)
(6.19192 -3.83433e-14 0)
(6.19192 -5.55863e-14 0)
(6.19192 -1.09709e-13 0)
(6.19192 -1.1861e-13 0)
(6.19192 -1.27425e-13 0)
(6.19192 -1.43585e-13 0)
(6.19192 -1.30786e-13 0)
(6.19192 -4.01769e-14 0)
(6.19192 -2.03568e-14 0)
(6.19192 -1.27022e-14 0)
(6.19192 -3.37892e-14 0)
(6.19192 -9.56765e-14 0)
(6.19192 -1.05525e-13 0)
(6.19192 -6.94487e-14 0)
(6.19192 -6.13339e-14 0)
(6.19192 -2.02668e-14 0)
(6.19192 1.27689e-15 0)
(6.19192 2.16537e-14 0)
(6.19192 3.34691e-14 0)
(6.19192 1.91966e-14 0)
(6.19192 -4.28741e-15 0)
(6.19192 -1.39891e-14 0)
(6.19192 -2.94918e-14 0)
(6.19192 -1.04018e-14 0)
(6.19192 8.33946e-14 0)
(6.19192 -9.20159e-15 0)
(6.19192 -1.09819e-14 0)
(6.19192 -9.88504e-15 0)
(6.19192 -2.09169e-14 0)
(6.19192 -1.64995e-14 0)
(6.19192 1.96834e-14 0)
(6.19192 4.27107e-14 0)
(6.19192 5.63764e-14 0)
(6.19192 8.40545e-14 0)
(6.19192 1.21884e-13 0)
(6.19192 1.12886e-13 0)
(6.19192 7.20824e-14 0)
(6.19192 5.11155e-14 0)
(6.19192 -5.33759e-15 0)
(6.19192 -5.35559e-14 0)
(6.19192 -5.34026e-14 0)
(6.19192 -1.07292e-13 0)
(6.19192 -1.08195e-13 0)
(6.19192 -8.07506e-14 0)
(6.19192 -6.78884e-14 0)
(6.19192 -6.18273e-14 0)
(6.19192 -3.32191e-14 0)
(6.19192 -1.97701e-15 0)
(6.19192 8.49147e-15 0)
(6.19192 2.94451e-14 0)
(6.19192 4.91652e-14 0)
(6.19192 3.95935e-14 0)
(6.19192 2.59345e-14 0)
(6.19192 -5.87768e-15 0)
(6.19192 -1.55827e-14 0)
(6.19192 -6.9382e-14 0)
(6.19192 -9.88004e-14 0)
(6.19192 -1.03131e-13 0)
(6.19192 -1.53927e-13 0)
(6.19192 -1.98091e-13 0)
(6.19192 -1.67999e-13 0)
(6.19192 -7.57331e-14 0)
(6.19192 -5.58463e-14 0)
(6.19192 -1.79764e-14 0)
(6.19192 -6.09432e-14 0)
(6.19192 -7.56797e-15 0)
(6.19192 -5.96636e-14 0)
(6.19192 -5.67965e-14 0)
(6.19192 -4.53278e-14 0)
(6.19192 -3.83133e-14 0)
(6.19192 -2.3314e-14 0)
(6.19192 7.43795e-15 0)
(6.19192 2.97451e-14 0)
(6.19192 3.28423e-14 0)
(6.19192 9.69501e-15 0)
(6.19192 9.83503e-16 0)
(6.19192 6.19107e-15 0)
(6.19192 2.44242e-14 0)
(6.19192 3.63196e-14 0)
(6.19192 -1.61861e-14 0)
(6.19192 -6.35343e-14 0)
(6.19192 -4.67847e-14 0)
(6.19192 -5.27591e-14 0)
(6.19192 -5.00853e-14 0)
(6.19192 -5.99203e-14 0)
(6.19192 -4.56812e-14 0)
(6.19192 -2.73414e-14 0)
(6.19192 -1.24421e-14 0)
(6.19192 -2.01235e-14 0)
(6.19192 -1.29656e-14 0)
(6.19192 1.15187e-14 0)
(6.19192 4.84417e-14 0)
(6.19192 1.11723e-13 0)
(6.19192 1.51259e-14 0)
(6.19192 -4.6518e-14 0)
(6.19192 -8.80752e-14 0)
(6.19192 -2.02458e-13 0)
(6.19192 -3.10087e-13 0)
(6.19192 -3.42292e-13 0)
(6.19192 -3.81743e-13 0)
(6.19192 -4.58856e-13 0)
(6.19192 -2.92461e-13 0)
(6.19192 -4.84384e-14 0)
(6.19192 -6.51112e-15 0)
(6.19192 -2.07148e-14 0)
(6.19192 4.65747e-15 0)
(6.19192 -6.03438e-16 0)
(6.19192 2.47843e-14 0)
(6.19192 5.64531e-14 0)
(6.19192 5.40027e-14 0)
(6.19192 2.52477e-14 0)
(6.19192 2.24239e-14 0)
(6.19192 1.80264e-14 0)
(6.19192 7.13123e-15 0)
(6.19192 -1.33776e-13 0)
(6.19192 -1.87339e-13 0)
(6.19192 -1.74353e-13 0)
(6.19192 -1.45195e-13 0)
(6.19192 -1.51823e-13 0)
(6.19192 -1.12016e-13 0)
(6.19192 -1.956e-14 0)
(6.19192 2.05502e-14 0)
(6.19192 -1.29656e-14 0)
(6.19192 -2.00138e-13 0)
(6.19192 -2.27513e-13 0)
(6.19192 -2.35537e-13 0)
(6.19192 -2.14744e-13 0)
(6.19192 -2.01095e-13 0)
(6.19192 -1.97357e-13 0)
(6.19192 -1.77014e-13 0)
(6.19192 -3.03119e-14 0)
(6.19192 3.93335e-14 0)
(6.19192 4.0527e-14 0)
(6.19192 9.651e-14 0)
(6.19192 5.33125e-14 0)
(6.19192 -4.09304e-14 0)
(6.19192 -1.07325e-13 0)
(6.19192 -1.26829e-13 0)
(6.19192 -1.48856e-13 0)
(6.19192 -1.55934e-13 0)
(6.19192 -1.42095e-13 0)
(6.19192 -1.10889e-13 0)
(6.19192 -2.15037e-14 0)
(6.19192 -1.74163e-14 0)
(6.19192 -6.1369e-14 0)
(6.19192 4.96086e-15 0)
(6.19192 2.51377e-15 0)
(6.19192 8.40145e-15 0)
(6.19192 4.47411e-15 0)
(6.19192 -6.32443e-15 0)
(6.19192 -5.801e-15 0)
(6.19192 -1.82031e-14 0)
(6.19192 -3.14688e-14 0)
(6.19192 -9.75668e-14 0)
(6.19192 -1.47862e-13 0)
(6.19192 -1.96864e-13 0)
(6.19192 -2.56404e-13 0)
(6.19192 -2.53597e-13 0)
(6.19192 -1.89303e-13 0)
(6.19192 -3.82333e-14 0)
(6.19192 5.82834e-14 0)
(6.19192 4.67847e-14 0)
(6.19192 -5.9967e-14 0)
(6.19192 -9.71368e-14 0)
(6.19192 -1.24845e-13 0)
(6.19192 -1.57577e-13 0)
(6.19192 -1.30509e-13 0)
(6.19192 -1.08699e-13 0)
(6.19192 -1.1558e-13 0)
(6.19192 -1.60971e-13 0)
(6.19192 -1.88879e-13 0)
(6.19192 -3.2869e-14 0)
(6.19192 -1.75697e-15 0)
(6.19192 1.15187e-14 0)
(6.19192 3.869e-14 0)
(6.19192 9.48831e-14 0)
(6.19192 4.91618e-14 0)
(6.19192 2.14937e-14 0)
(6.19192 5.64998e-14 0)
(6.19192 8.71817e-14 0)
(6.19192 9.2756e-14 0)
(6.19192 9.76969e-14 0)
(6.19192 7.64465e-14 0)
(6.19192 8.30043e-14 0)
(6.19192 1.53207e-13 0)
(6.19192 -3.06053e-15 0)
(6.19192 7.90136e-15 0)
(6.19192 1.31889e-14 0)
(6.19192 5.2009e-15 0)
(6.19192 -3.97069e-15 0)
(6.19192 -1.36424e-14 0)
(6.19192 -3.17021e-14 0)
(6.19192 -1.17144e-13 0)
(6.19192 -1.38717e-13 0)
(6.19192 -9.22559e-14 0)
(6.19192 -7.57231e-14 0)
(6.19192 -5.25057e-14 0)
(6.19192 1.81698e-15 0)
(6.19192 1.17487e-14 0)
(6.19192 3.81699e-14 0)
(6.19192 5.25624e-14 0)
(6.19192 2.15537e-14 0)
(6.19192 -4.8025e-14 0)
(6.19192 -6.44611e-14 0)
(6.19192 -7.55464e-14 0)
(6.19192 -2.78615e-14 0)
(6.19192 3.34091e-14 0)
(6.19192 4.05737e-14 0)
(6.19192 -7.80135e-16 0)
(6.19192 -5.80934e-14 0)
(6.19192 -1.00387e-13 0)
(6.19192 -2.08143e-13 0)
(6.19192 -3.15825e-13 0)
(6.19192 -2.03235e-13 0)
(6.19192 -7.95771e-14 0)
(6.19192 1.66929e-14 0)
(6.19192 6.68015e-14 0)
(6.19192 5.14656e-14 0)
(6.19192 5.68231e-14 0)
(6.19192 1.24011e-13 0)
(6.19192 8.99455e-14 0)
(6.19192 -7.1239e-14 0)
(6.19192 -8.76585e-14 0)
(6.19192 -1.04268e-13 0)
(6.19192 -5.11665e-15 0)
(6.19192 -4.91752e-15 0)
(6.19192 2.51043e-15 0)
(6.19192 -1.00017e-16 0)
(6.19192 -1.65695e-15 0)
(6.19192 1.04885e-14 0)
(6.19192 1.66062e-14 0)
(6.19192 1.38024e-14 0)
(6.19192 2.45109e-14 0)
(6.19192 1.20921e-14 0)
(6.19192 -2.12037e-15 0)
(6.19192 -2.85716e-14 0)
(6.19192 -4.32408e-15 0)
(6.19192 2.76048e-14 0)
(6.19192 1.34157e-14 0)
(6.19192 -4.4621e-14 0)
(6.19192 -7.12823e-14 0)
(6.19192 -6.87219e-14 0)
(6.19192 -7.00754e-14 0)
(6.19192 -7.81568e-14 0)
(6.19192 -1.70029e-14 0)
(6.19192 -1.3269e-15 0)
(6.19192 2.17037e-15 0)
(6.19192 -7.66799e-15 0)
(6.19192 -2.00601e-14 0)
(6.19192 -2.05302e-14 0)
(6.19192 -2.95551e-14 0)
(6.19192 -7.19758e-14 0)
(6.19192 -1.93007e-13 0)
(6.19192 -2.76914e-13 0)
(6.19192 -1.9567e-13 0)
(6.19192 -2.04102e-13 0)
(6.19192 -1.92603e-13 0)
(6.19192 -2.23009e-13 0)
(6.19192 -2.1079e-13 0)
(6.19192 -6.22207e-14 0)
(6.19192 -1.5446e-14 0)
(6.19192 -7.95804e-15 0)
(6.19192 -2.46443e-14 0)
(6.19192 -7.82935e-14 0)
(6.19192 -9.65582e-14 0)
(6.19192 -4.90418e-15 0)
(6.19192 -1.16687e-14 0)
(6.19192 -1.914e-14 0)
(6.19192 -1.45125e-14 0)
(6.19192 -1.08352e-15 0)
(6.19192 1.53193e-14 0)
(6.19192 5.14422e-15 0)
(6.19192 5.09088e-14 0)
(6.19192 7.97238e-14 0)
(6.19192 3.93235e-14 0)
(6.19192 -7.08422e-14 0)
(6.19192 -9.2636e-14 0)
(6.19192 -7.3496e-14 0)
(6.19192 -8.42279e-14 0)
(6.19192 -7.01521e-14 0)
(6.19192 -6.43878e-14 0)
(6.19192 -3.98069e-14 0)
(6.19192 -2.09369e-14 0)
(6.19192 -9.89504e-15 0)
(6.19192 3.14654e-14 0)
(6.19192 4.12871e-14 0)
(6.19192 2.50043e-14 0)
(6.19192 5.69498e-14 0)
(6.19192 5.15789e-14 0)
(6.19192 4.7975e-14 0)
(6.19192 2.78815e-14 0)
(6.19192 -1.20854e-13 0)
(6.19192 -1.67839e-13 0)
(6.19192 -1.81891e-13 0)
(6.19192 -1.79508e-13 0)
(6.19192 -2.63539e-13 0)
(6.19192 -3.39635e-13 0)
(6.19192 -3.55085e-13 0)
(6.19192 -2.9237e-13 0)
(6.19192 -9.16258e-14 0)
(6.19192 -7.36294e-14 0)
(6.19192 -3.77832e-14 0)
(6.19192 -8.28643e-14 0)
(6.19192 -1.03975e-13 0)
(6.19192 -1.41578e-13 0)
(6.19192 1.79564e-14 0)
(6.19192 2.8705e-14 0)
(6.19192 3.48393e-14 0)
(6.19192 3.03452e-14 0)
(6.19192 1.22421e-14 0)
(6.19192 1.88499e-14 0)
(6.19192 3.41692e-14 0)
(6.19192 5.2309e-15 0)
(6.19192 -7.27792e-15 0)
(6.19192 -2.25239e-14 0)
(6.19192 -5.17956e-14 0)
(6.19192 -1.05205e-13 0)
(6.19192 -1.11193e-13 0)
(6.19192 -1.20451e-13 0)
(6.19192 -6.79784e-14 0)
(6.19192 1.76364e-14 0)
(6.19192 3.98736e-14 0)
(6.19192 1.46359e-14 0)
(6.19192 -9.665e-15 0)
(6.19192 -2.26039e-14 0)
(6.19192 -1.14753e-14 0)
(6.19192 9.11157e-15 0)
(6.19192 5.14089e-15 0)
(6.19192 -1.85699e-15 0)
(6.19192 -5.88435e-15 0)
(6.19192 -3.94535e-14 0)
(6.19192 -7.24859e-14 0)
(6.19192 -1.12043e-13 0)
(6.19192 -1.5192e-13 0)
(6.19192 -1.95167e-13 0)
(6.19192 -2.36784e-13 0)
(6.19192 -2.81802e-13 0)
(6.19192 -2.68503e-13 0)
(6.19192 -1.93133e-13 0)
(6.19192 -9.86837e-14 0)
(6.19192 -8.26409e-14 0)
(6.19192 -5.36859e-14 0)
(6.19192 2.52377e-15 0)
(6.19192 -5.12955e-14 0)
(6.19192 -9.05099e-14 0)
(6.19192 -1.28355e-15 0)
(6.19192 5.45428e-15 0)
(6.19192 2.87383e-15 0)
(6.19192 -1.73363e-16 0)
(6.19192 -5.51095e-15 0)
(6.19192 7.91137e-15 0)
(6.19192 4.39443e-14 0)
(6.19192 3.90434e-14 0)
(6.19192 1.14486e-14 0)
(6.19192 5.68765e-15 0)
(6.19192 6.73583e-14 0)
(6.19192 6.80718e-14 0)
(6.19192 4.4531e-14 0)
(6.19192 2.16671e-14 0)
(6.19192 -3.46493e-14 0)
(6.19192 -9.30794e-14 0)
(6.19192 -1.11113e-13 0)
(6.19192 -1.06565e-13 0)
(6.19192 -9.62933e-14 0)
(6.19192 -9.12091e-14 0)
(6.19192 -9.58165e-14 0)
(6.19192 -1.01044e-13 0)
(6.19192 -1.00241e-13 0)
(6.19192 -5.09321e-14 0)
(6.19192 -2.07269e-14 0)
(6.19192 -5.64764e-14 0)
(6.19192 -7.87703e-14 0)
(6.19192 -1.27775e-13 0)
(6.19192 -5.49862e-14 0)
(6.19192 -1.28022e-14 0)
(6.19192 2.13904e-14 0)
(6.19192 -4.8375e-15 0)
(6.19192 -8.72651e-14 0)
(6.19192 -1.20591e-13 0)
(6.19192 -1.35203e-13 0)
(6.19192 -1.31373e-13 0)
(6.19192 -1.54917e-13 0)
(6.19192 -8.38378e-14 0)
(6.19192 -5.13389e-14 0)
(6.19192 -7.25737e-14 0)
(6.19192 2.89383e-15 0)
(6.19192 6.78784e-15 0)
(6.19192 1.17687e-15 0)
(6.19192 1.50826e-14 0)
(6.19192 3.25156e-14 0)
(6.19192 1.23321e-14 0)
(6.19192 1.36857e-14 0)
(6.19192 2.82916e-14 0)
(6.19192 5.70432e-14 0)
(6.19192 1.80018e-13 0)
(6.19192 2.57638e-13 0)
(6.19192 2.70947e-13 0)
(6.19192 2.1435e-13 0)
(6.19192 1.01464e-13 0)
(6.19192 7.37861e-14 0)
(6.19192 2.99718e-15 0)
(6.19192 -3.74331e-14 0)
(6.19192 -2.43042e-14 0)
(6.19192 1.74363e-14 0)
(6.19192 -5.1959e-14 0)
(6.19192 -1.38267e-13 0)
(6.19192 -1.52266e-13 0)
(6.19192 -1.49069e-13 0)
(6.19192 -1.23188e-14 0)
(6.19192 2.21372e-14 0)
(6.19192 5.95036e-14 0)
(6.19192 7.90436e-14 0)
(6.19192 -2.77415e-14 0)
(6.19192 -5.61864e-14 0)
(6.19192 -4.55612e-14 0)
(6.19192 -2.76948e-14 0)
(6.19192 5.54296e-14 0)
(6.19192 1.64765e-13 0)
(6.19192 1.41935e-13 0)
(6.19192 9.76035e-14 0)
(6.19192 -4.85084e-15 0)
(6.19192 -4.15938e-14 0)
(6.19192 -1.50826e-14 0)
(6.19192 1.35757e-14 0)
(6.19192 2.17733e-14 0)
(6.19192 3.58729e-15 0)
(6.19192 5.56429e-15 0)
(6.19192 1.02118e-14 0)
(6.19192 -2.78715e-15 0)
(6.19192 5.43427e-15 0)
(6.19192 -5.82434e-15 0)
(6.19192 -3.17055e-15 0)
(6.19192 1.44425e-14 0)
(6.19192 6.91086e-14 0)
(6.19192 1.49429e-13 0)
(6.19192 1.87236e-13 0)
(6.19192 1.69969e-13 0)
(6.19192 1.40608e-13 0)
(6.19192 1.20988e-13 0)
(6.19192 5.72932e-14 0)
(6.19192 2.02135e-14 0)
(6.19192 4.60146e-14 0)
(6.19192 5.68698e-14 0)
(6.19192 4.51445e-14 0)
(6.19192 2.26272e-14 0)
(6.19192 -4.86084e-15 0)
(6.19192 -4.83417e-16 0)
(6.19192 -1.37357e-14 0)
(6.19192 2.66313e-14 0)
(6.19192 7.40661e-14 0)
(6.19192 1.15113e-13 0)
(6.19192 1.56874e-13 0)
(6.19192 1.60254e-13 0)
(6.19192 1.41424e-13 0)
(6.19192 1.05115e-13 0)
(6.19192 5.55429e-14 0)
(6.19192 6.47478e-14 0)
(6.19192 9.40796e-14 0)
(6.19192 1.43415e-13 0)
(6.19192 1.34083e-13 0)
(6.19192 8.02639e-14 0)
(6.19192 7.30993e-14 0)
(6.19192 4.57512e-14 0)
(6.19192 3.14688e-14 0)
(6.19192 3.34929e-14 0)
(6.19192 -9.65167e-15 0)
(6.19192 -9.66834e-15 0)
(6.19192 -9.52831e-15 0)
(6.19192 -2.54611e-14 0)
(6.19192 -3.02486e-14 0)
(6.19192 -2.35307e-14 0)
(6.19192 -2.57978e-14 0)
(6.19192 -1.21821e-14 0)
(6.19192 -7.96804e-16 0)
(6.19192 6.86785e-16 0)
(6.19192 -6.66782e-18 0)
(6.19192 6.5478e-15 0)
(6.19192 -1.74297e-14 0)
(6.19192 -4.10171e-14 0)
(6.19192 -4.84484e-14 0)
(6.19192 -5.6173e-14 0)
(6.19192 -3.15388e-15 0)
(6.19192 1.93167e-14 0)
(6.19192 2.39808e-14 0)
(6.19192 4.04303e-14 0)
(6.19192 6.92086e-14 0)
(6.19192 1.00974e-13 0)
(6.19192 1.19511e-13 0)
(6.19192 1.26118e-13 0)
(6.19192 1.41108e-13 0)
(6.19192 1.82311e-13 0)
(6.19192 2.91277e-13 0)
(6.19192 3.05793e-13 0)
(6.19192 2.77871e-13 0)
(6.19192 2.88523e-13 0)
(6.19192 2.87973e-13 0)
(6.19192 1.88929e-13 0)
(6.19192 1.24221e-13 0)
(6.19192 1.18127e-13 0)
(6.19192 1.16834e-13 0)
(6.19192 1.21604e-13 0)
(6.19192 1.63952e-13 0)
(6.19192 1.70176e-13 0)
(6.19192 1.98711e-13 0)
(6.19192 1.32825e-13 0)
(6.19192 -1.52693e-15 0)
(6.19192 -1.18954e-14 0)
(6.19192 -4.8505e-14 0)
(6.19192 -5.24391e-14 0)
(6.19192 -5.88035e-14 0)
(6.19192 -6.23808e-14 0)
(6.19192 -1.10609e-13 0)
(6.19192 -1.02968e-13 0)
(6.19192 -5.59497e-14 0)
(6.19192 -3.85767e-14 0)
(6.19192 -6.46712e-14 0)
(6.19192 -7.23558e-14 0)
(6.19192 -7.25192e-14 0)
(6.19192 -1.30092e-13 0)
(6.19192 -7.24425e-14 0)
(6.19192 -1.20954e-14 0)
(6.19192 1.00351e-15 0)
(6.19192 1.30956e-14 0)
(6.19192 3.20855e-14 0)
(6.19192 4.74315e-14 0)
(6.19192 5.06521e-14 0)
(6.19192 2.86183e-14 0)
(6.19192 6.11506e-14 0)
(6.19192 6.40744e-14 0)
(6.19192 7.42061e-14 0)
(6.19192 8.82386e-14 0)
(6.19192 6.28675e-14 0)
(6.19192 6.3481e-14 0)
(6.19192 6.96287e-14 0)
(6.19192 9.92805e-14 0)
(6.19192 9.8207e-14 0)
(6.19192 5.31558e-14 0)
(6.19192 -7.13457e-15 0)
(6.19192 -3.79065e-14 0)
(6.19192 -8.99622e-14 0)
(6.19192 -5.51795e-14 0)
(6.19192 -1.51393e-14 0)
(6.19192 -1.97067e-14 0)
(6.19192 -1.59394e-14 0)
(6.19192 -5.93194e-14 0)
(6.19192 5.73432e-16 0)
(6.19192 -3.51094e-14 0)
(6.19192 -3.02519e-14 0)
(6.19192 -1.78798e-14 0)
(6.19192 -2.06069e-14 0)
(6.19192 -3.42359e-14 0)
(6.19192 -2.36841e-14 0)
(6.19192 -3.56128e-14 0)
(6.19192 -6.26575e-14 0)
(6.19192 -4.86017e-14 0)
(6.19192 -3.76865e-14 0)
(6.19192 -4.22406e-14 0)
(6.19192 -6.26475e-14 0)
(6.19192 -1.79131e-14 0)
(6.19192 4.47744e-15 0)
(6.19192 5.18423e-15 0)
(6.19192 -4.87084e-15 0)
(6.19192 -4.98086e-15 0)
(6.19192 3.96735e-15 0)
(6.19192 1.87532e-14 0)
(6.19192 2.39875e-14 0)
(6.19192 7.03788e-15 0)
(6.19192 -1.90666e-14 0)
(6.19192 -2.23905e-14 0)
(6.19192 -4.26607e-14 0)
(6.19192 -6.30409e-14 0)
(6.19192 -1.40058e-14 0)
(6.19192 2.82082e-14 0)
(6.19192 6.66949e-14 0)
(6.19192 5.765e-14 0)
(6.19192 7.1559e-14 0)
(6.19192 2.84616e-14 0)
(6.19192 -2.49943e-14 0)
(6.19192 -4.50845e-14 0)
(6.19192 -8.61449e-14 0)
(6.19192 -1.12353e-13 0)
(6.19192 -1.28215e-13 0)
(6.19192 -1.21608e-13 0)
(6.19192 -1.08255e-13 0)
(6.19192 -7.61249e-14 0)
(6.19192 -8.02805e-15 0)
(6.19192 -2.25106e-14 0)
(6.19192 9.68167e-15 0)
(6.19192 1.53293e-14 0)
(6.19192 -9.10491e-15 0)
(6.19192 -2.44142e-14 0)
(6.19192 7.57464e-15 0)
(6.19192 1.61395e-14 0)
(6.19192 -2.64046e-15 0)
(6.19192 -2.94818e-14 0)
(6.19192 -1.82698e-14 0)
(6.19192 2.15671e-14 0)
(6.19192 3.30457e-14 0)
(6.19192 3.06186e-14 0)
(6.19192 2.13604e-14 0)
(6.19192 -4.4341e-15 0)
(6.19192 -1.39357e-15 0)
(6.19192 -3.15288e-14 0)
(6.19192 -4.78516e-14 0)
(6.19192 -3.84166e-14 0)
(6.19192 8.66816e-15 0)
(6.19192 2.65312e-14 0)
(6.19192 6.36277e-14 0)
(6.19192 9.14491e-14 0)
(6.19192 9.32428e-14 0)
(6.19192 1.19064e-13 0)
(6.19192 1.68316e-13 0)
(6.19192 2.00031e-13 0)
(6.19192 2.1197e-13 0)
(6.19192 1.48096e-13 0)
(6.19192 6.05338e-14 0)
(6.19192 7.09789e-14 0)
(6.19192 9.53198e-14 0)
(6.19192 1.05732e-13 0)
(6.19192 -3.78432e-14 0)
(6.19192 -2.01778e-13 0)
(6.19192 -2.03125e-13 0)
(6.19192 -1.1555e-13 0)
(6.19192 2.73514e-14 0)
(6.19192 1.83334e-13 0)
(6.19192 -4.91752e-15 0)
(6.19192 3.31291e-14 0)
(6.19192 4.96719e-14 0)
(6.19192 2.96451e-14 0)
(6.19192 1.03285e-14 0)
(6.19192 -6.24108e-15 0)
(6.19192 -2.13537e-14 0)
(6.19192 -3.19589e-14 0)
(6.19192 -2.26206e-14 0)
(6.19192 -5.78933e-14 0)
(6.19192 -3.84233e-14 0)
(6.19192 2.06202e-14 0)
(6.19192 6.87052e-14 0)
(6.19192 5.19223e-14 0)
(6.19192 2.60045e-14 0)
(6.19192 2.38508e-14 0)
(6.19192 1.58661e-14 0)
(6.19192 -3.887e-14 0)
(6.19192 -4.72548e-14 0)
(6.19192 -4.01169e-14 0)
(6.19192 -8.84153e-15 0)
(6.19192 1.67462e-14 0)
(6.19192 2.9105e-14 0)
(6.19192 3.94968e-14 0)
(6.19192 1.01764e-13 0)
(6.19192 1.40248e-13 0)
(6.19192 9.17658e-14 0)
(6.19192 4.70615e-14 0)
(6.19192 1.50059e-14 0)
(6.19192 2.75648e-14 0)
(6.19192 1.14546e-13 0)
(6.19192 1.78107e-13 0)
(6.19192 1.99858e-13 0)
(6.19192 1.41274e-13 0)
(6.19192 6.57847e-14 0)
(6.19192 5.76133e-14 0)
(6.19192 5.35592e-14 0)
(6.19192 8.8672e-14 0)
(6.19192 7.8997e-14 0)
(6.19192 5.90777e-14 0)
(6.19192 4.94419e-15 0)
(6.19192 1.88999e-14 0)
(6.19192 2.05969e-14 0)
(6.19192 3.72864e-14 0)
(6.19192 5.77666e-14 0)
(6.19192 6.47879e-14 0)
(6.19192 3.62163e-14 0)
(6.19192 1.86799e-14 0)
(6.19192 -2.93817e-14 0)
(6.19192 -1.06845e-13 0)
(6.19192 -1.20941e-13 0)
(6.19192 -4.93785e-14 0)
(6.19192 9.72501e-15 0)
(6.19192 5.47094e-14 0)
(6.19192 4.66181e-14 0)
(6.19192 -1.54327e-14 0)
(6.19192 -1.83665e-14 0)
(6.19192 -1.26222e-14 0)
(6.19192 -1.25655e-14 0)
(6.19192 -2.91684e-14 0)
(6.19192 -2.93884e-14 0)
(6.19192 6.40777e-15 0)
(6.19192 -2.86716e-16 0)
(6.19192 -6.26041e-14 0)
(6.19192 -9.78636e-14 0)
(6.19192 -1.17384e-13 0)
(6.19192 -1.01281e-13 0)
(6.19192 -3.79832e-14 0)
(6.19192 8.42779e-14 0)
(6.19192 1.26312e-13 0)
(6.19192 1.62085e-13 0)
(6.19192 2.46689e-13 0)
(6.19192 2.51893e-13 0)
(6.19192 2.04082e-13 0)
(6.19192 2.19078e-13 0)
(6.19192 2.62402e-13 0)
(6.19192 2.21198e-13 0)
(6.19192 1.34227e-13 0)
(6.19192 1.04058e-13 0)
(6.19192 8.51984e-14 0)
(6.19192 -1.39024e-15 0)
(6.19192 -6.02437e-15 0)
(6.19192 -5.32092e-15 0)
(6.19192 3.28723e-15 0)
(6.19192 5.12422e-15 0)
(6.19192 5.9697e-14 0)
(6.19192 7.1309e-14 0)
(6.19192 6.51679e-14 0)
(6.19192 -1.62228e-14 0)
(6.19192 -9.99606e-14 0)
(6.19192 -1.50056e-13 0)
(6.19192 -1.7517e-13 0)
(6.19192 -1.17944e-13 0)
(6.19192 -9.29794e-14 0)
(6.19192 -8.98455e-14 0)
(6.19192 -3.77565e-14 0)
(6.19192 1.75664e-14 0)
(6.19192 2.86716e-14 0)
(6.19192 5.79667e-14 0)
(6.19192 5.97903e-14 0)
(6.19192 6.95153e-14 0)
(6.19192 5.74266e-14 0)
(6.19192 4.12738e-15 0)
(6.19192 1.55927e-14 0)
(6.19192 1.02018e-14 0)
(6.19192 -2.17504e-14 0)
(6.19192 -5.2269e-14 0)
(6.19192 -2.95751e-14 0)
(6.19192 3.45693e-14 0)
(6.19192 7.42061e-14 0)
(6.19192 9.01689e-14 0)
(6.19192 9.63666e-14 0)
(6.19192 9.20892e-14 0)
(6.19192 6.92053e-14 0)
(6.19192 1.59494e-14 0)
(6.19192 2.49676e-14 0)
(6.19192 6.74383e-14 0)
(6.19192 -5.97103e-15 0)
(6.19192 -5.88235e-14 0)
(6.19192 -5.68718e-14 0)
(6.19192 -1.41358e-15 0)
(6.19192 1.02084e-14 0)
(6.19192 9.20826e-15 0)
(6.19192 9.33495e-16 0)
(6.19192 -2.62179e-14 0)
(6.19192 -2.39641e-14 0)
(6.19192 -2.36041e-14 0)
(6.19192 -2.8925e-14 0)
(6.19192 -6.94053e-14 0)
(6.19192 -1.02298e-13 0)
(6.19192 -1.63792e-13 0)
(6.19192 -1.79898e-13 0)
(6.19192 -1.64788e-13 0)
(6.19192 -8.81852e-14 0)
(6.19192 -7.20958e-14 0)
(6.19192 -1.1542e-14 0)
(6.19192 -2.46042e-15 0)
(6.19192 1.15253e-14 0)
(6.19192 5.86768e-14 0)
(6.19192 1.00177e-13 0)
(6.19192 1.44405e-13 0)
(6.19192 1.29619e-13 0)
(6.19192 1.17537e-13 0)
(6.19192 1.1479e-13 0)
(6.19192 9.78536e-14 0)
(6.19192 9.98206e-14 0)
(6.19192 1.06428e-13 0)
(6.19192 8.94188e-14 0)
(6.19192 5.80734e-14 0)
(6.19192 5.28091e-14 0)
(6.19192 2.99618e-14 0)
(6.19192 -1.65762e-14 0)
(6.19192 -2.35574e-14 0)
(6.19192 -5.05021e-14 0)
(6.19192 -6.2034e-14 0)
(6.19192 -8.83519e-14 0)
(6.19192 -2.66379e-14 0)
(6.19192 -1.99634e-14 0)
(6.19192 -3.53928e-14 0)
(6.19192 -4.31695e-14 0)
(6.19192 -1.3699e-14 0)
(6.19192 -2.44776e-14 0)
(6.19192 -2.17204e-14 0)
(6.19192 -2.34207e-14 0)
(6.19192 -5.29992e-14 0)
(6.19192 -5.56963e-14 0)
(6.19192 -1.73697e-14 0)
(6.19192 1.75364e-15 0)
(6.19192 -5.32092e-15 0)
(6.19192 2.56744e-14 0)
(6.19192 6.49946e-14 0)
(6.19192 5.44427e-14 0)
(6.19192 3.98135e-14 0)
(6.19192 1.98901e-14 0)
(6.19192 1.78898e-14 0)
(6.19192 6.10705e-14 0)
(6.19192 3.4866e-14 0)
(6.19192 4.06637e-14 0)
(6.19192 3.91934e-14 0)
(6.19192 4.35575e-14 0)
(6.19192 4.96986e-14 0)
(6.19192 2.54777e-14 0)
(6.19192 4.41009e-14 0)
(6.19192 3.43159e-14 0)
(6.19192 -7.46796e-15 0)
(6.19192 -2.14037e-15 0)
(6.19192 1.98834e-14 0)
(6.19192 5.64064e-14 0)
(6.19192 2.77215e-14 0)
(6.19192 -3.71864e-14 0)
(6.19192 -7.34293e-14 0)
(6.19192 -1.34857e-13 0)
(6.19192 -1.78934e-13 0)
(6.19192 -1.47182e-13 0)
(6.19192 -9.4373e-14 0)
(6.19192 -7.93804e-14 0)
(6.19192 -8.29577e-14 0)
(6.19192 -4.85084e-15 0)
(6.19192 2.01268e-14 0)
(6.19192 2.41229e-14 0)
(6.19192 1.06752e-14 0)
(6.19192 -4.37742e-15 0)
(6.19192 3.6673e-15 0)
(6.19192 2.3324e-14 0)
(6.19192 3.97169e-14 0)
(6.19192 1.38157e-14 0)
(6.19192 -5.44761e-15 0)
(6.19192 1.52326e-14 0)
(6.19192 9.76069e-14 0)
(6.19192 1.62525e-13 0)
(6.19192 2.68966e-13 0)
(6.19192 2.99292e-13 0)
(6.19192 2.38154e-13 0)
(6.19192 1.00634e-13 0)
(6.19192 4.34375e-14 0)
(6.19192 3.30757e-14 0)
(6.19192 5.04854e-14 0)
(6.19192 9.05323e-14 0)
(6.19192 7.31526e-14 0)
(6.19192 1.32156e-14 0)
(6.19192 -5.2329e-14 0)
(6.19192 -1.39634e-13 0)
(6.19192 -1.44818e-13 0)
(6.19192 -1.26999e-13 0)
(6.19192 -8.25709e-14 0)
(6.19192 -5.04354e-14 0)
(6.19192 -2.83782e-14 0)
(6.19192 -8.88187e-14 0)
(6.19192 -1.23518e-13 0)
(6.19192 -1.30269e-13 0)
(6.19192 -1.50299e-13 0)
(6.19192 -1.42918e-13 0)
(6.19192 -1.47692e-13 0)
(6.19192 -1.08785e-13 0)
(6.19192 -1.16247e-13 0)
(6.19192 -1.32773e-13 0)
(6.19192 -1.60971e-13 0)
(6.19192 -1.40331e-13 0)
(6.19192 -9.14391e-14 0)
(6.19192 -6.15147e-14 0)
(6.19192 1.71696e-14 0)
(6.19192 1.09352e-14 0)
(6.19192 -4.93752e-15 0)
(6.19192 2.91117e-14 0)
(6.19192 9.96305e-14 0)
(6.19192 7.713e-14 0)
(6.19192 -3.63096e-14 0)
(6.19192 -5.11588e-14 0)
(6.19192 -4.44843e-14 0)
(6.19192 1.7503e-15 0)
(6.19192 6.46412e-14 0)
(6.19192 5.64831e-14 0)
(6.19192 3.61162e-14 0)
(6.19192 3.35625e-14 0)
(6.19192 5.79833e-14 0)
(6.19192 5.9987e-14 0)
(6.19192 5.39126e-14 0)
(6.19192 2.22805e-14 0)
(6.19192 -2.8895e-14 0)
(6.19192 -3.81566e-14 0)
(6.19192 -2.46609e-14 0)
(6.19192 -5.84968e-14 0)
(6.19192 -1.06932e-13 0)
(6.19192 -1.41814e-13 0)
(6.19192 -1.38554e-13 0)
(6.19192 -1.37747e-13 0)
(6.19192 -1.61841e-13 0)
(6.19192 -1.60268e-13 0)
(6.19192 -1.43171e-13 0)
(6.19192 -8.07506e-14 0)
(6.19192 -6.2004e-14 0)
(6.19192 -6.66648e-14 0)
(6.19192 -5.92036e-14 0)
(6.19192 -4.22073e-14 0)
(6.19192 -3.6803e-14 0)
(6.19192 -1.38024e-15 0)
(6.19192 2.39041e-15 0)
(6.19192 6.81884e-14 0)
(6.19192 9.4453e-14 0)
(6.19192 -1.65382e-14 0)
(6.19192 -1.30689e-15 0)
(6.19192 -1.28022e-15 0)
(6.19192 -3.25723e-14 0)
(6.19192 -3.92201e-14 0)
(6.19192 -3.22756e-14 0)
(6.19192 -6.03771e-15 0)
(6.19192 3.11387e-15 0)
(6.19192 -8.91654e-14 0)
(6.19192 -1.3575e-13 0)
(6.19192 -1.57044e-13 0)
(6.19192 -9.07357e-14 0)
(6.19192 -6.43778e-14 0)
(6.19192 -5.75733e-14 0)
(6.19192 -4.67447e-14 0)
(6.19192 -2.26039e-15 0)
(6.19192 2.91717e-15 0)
(6.19192 4.56746e-16 0)
(6.19192 -7.65666e-14 0)
(6.19192 -9.44096e-14 0)
(6.19192 -8.8862e-14 0)
(6.19192 -7.48863e-14 0)
(6.19192 1.41691e-15 0)
(6.19192 7.42128e-15 0)
(6.19192 1.14386e-14 0)
(6.19192 2.32507e-14 0)
(6.19192 -8.82352e-14 0)
(6.19192 -1.86859e-13 0)
(6.19192 -1.96844e-13 0)
(6.19192 -1.13063e-13 0)
(6.19192 -5.05454e-14 0)
(6.19192 -4.58379e-14 0)
(6.19192 -5.88268e-14 0)
(6.19192 -1.23955e-13 0)
(6.19192 -7.03688e-14 0)
(6.19192 -3.65897e-14 0)
(6.19192 -1.7103e-14 0)
(6.19192 2.39108e-14 0)
(6.19192 5.10688e-14 0)
(6.19192 4.52078e-14 0)
(6.19192 -8.66384e-15 0)
(6.19192 -2.16604e-14 0)
(6.19192 -2.22305e-14 0)
(6.19192 -7.10123e-16 0)
(6.19192 -1.87032e-15 0)
(6.19192 -3.40459e-14 0)
(6.19192 -4.19939e-14 0)
(6.19192 -2.08803e-14 0)
(6.19192 -4.05537e-14 0)
(6.19192 -2.77548e-14 0)
(6.19192 -1.96601e-14 0)
(6.19192 -1.10152e-14 0)
(6.19192 3.00052e-16 0)
(6.19192 -3.32057e-15 0)
(6.19192 -7.60131e-15 0)
(6.19192 -6.82451e-15 0)
(6.19192 -8.5048e-15 0)
(6.19192 -1.30756e-14 0)
(6.19192 -2.21138e-14 0)
(6.19192 -8.40478e-14 0)
(6.19192 -1.10172e-13 0)
(6.19192 -1.49356e-13 0)
(6.19192 -2.14887e-13 0)
(6.19192 -2.15721e-13 0)
(6.19192 -2.06046e-13 0)
(6.19192 -1.96957e-13 0)
(6.19192 -1.95367e-13 0)
(6.19192 -2.00991e-13 0)
(6.19192 -2.02168e-13 0)
(6.19192 -1.89726e-13 0)
(6.19192 -1.55373e-13 0)
(6.19192 -2.16144e-13 0)
(6.19192 -1.73463e-13 0)
(6.19192 -9.57465e-14 0)
(6.19192 -2.5351e-14 0)
(6.19192 -8.8982e-15 0)
(6.19192 1.26455e-14 0)
(6.19192 4.49644e-14 0)
(6.19192 5.11755e-15 0)
(6.19192 -5.36926e-14 0)
(6.19192 -9.17985e-14 0)
(6.19192 -7.03121e-15 0)
(6.19192 1.42891e-14 0)
(6.19192 2.48143e-14 0)
(6.19192 6.06105e-15 0)
(6.19192 -5.30092e-15 0)
(6.19192 1.22354e-15 0)
(6.19192 2.77581e-14 0)
(6.19192 6.36077e-14 0)
(6.19192 6.45611e-14 0)
(6.19192 5.62297e-14 0)
(6.19192 7.37127e-15 0)
(6.19192 -2.66746e-14 0)
(6.19192 -3.94268e-14 0)
(6.19192 -3.54861e-14 0)
(6.19192 -1.74097e-14 0)
(6.19192 -1.23621e-14 0)
(6.19192 -2.40742e-14 0)
(6.19192 -1.33856e-14 0)
(6.19192 -5.85434e-15 0)
(6.19192 -4.90085e-15 0)
(6.19192 1.67296e-14 0)
(6.19192 1.56394e-14 0)
(6.19192 -6.77784e-15 0)
(6.19192 -3.86667e-14 0)
(6.19192 -9.13824e-14 0)
(6.19192 -1.09386e-13 0)
(6.19192 -1.13806e-13 0)
(6.19192 -1.15087e-13 0)
(6.19192 -1.40434e-13 0)
(6.19192 -2.07326e-13 0)
(6.19192 -2.67606e-13 0)
(6.19192 -2.59505e-13 0)
(6.19192 -1.28939e-13 0)
(6.19192 -1.08122e-13 0)
(6.19192 -9.13491e-14 0)
(6.19192 -4.6238e-14 0)
(6.19192 -1.15687e-13 0)
(6.19192 -2.30893e-13 0)
(6.19192 -2.26456e-13 0)
(6.19192 -2.34816e-13 0)
(6.19192 2.79915e-14 0)
(6.19192 2.56844e-14 0)
(6.19192 5.26091e-15 0)
(6.19192 -3.19355e-14 0)
(6.19192 -3.59862e-14 0)
(6.19192 -3.65063e-14 0)
(6.19192 1.47259e-14 0)
(6.19192 5.89969e-14 0)
(6.19192 4.89151e-14 0)
(6.19192 1.23255e-14 0)
(6.19192 2.05469e-14 0)
(6.19192 6.14606e-14 0)
(6.19192 8.1014e-14 0)
(6.19192 2.91317e-14 0)
(6.19192 -2.05235e-14 0)
(6.19192 -6.62048e-14 0)
(6.19192 -8.35778e-14 0)
(6.19192 -7.68799e-14 0)
(6.19192 -5.92336e-14 0)
(6.19192 -4.85517e-14 0)
(6.19192 -2.46776e-14 0)
(6.19192 9.10691e-14 0)
(6.19192 1.3412e-13 0)
(6.19192 6.83251e-14 0)
(6.19192 2.07036e-14 0)
(6.19192 -2.58045e-15 0)
(6.19192 -4.86351e-14 0)
(6.19192 -4.33475e-14 0)