/*--------------------------------*- C++ -*----------------------------------*\
| =========                 |                                                 |
| \\      /  F ield         | OpenFOAM: The Open Source CFD Toolbox           |
|  \\    /   O peration     | Version:  2206                                  |
|   \\  /    A nd           | Website:  www.openfoam.com                      |
|    \\/     M anipulation  |                                                 |
\*---------------------------------------------------------------------------*/
FoamFile
{
    version     2.0;
    format      ascii;
    arch        "LSB;label=32;scalar=64";
    class       volScalarField;
    location    "0.2";
    object      p;
}
// * * * * * * * * * * * * * * * * * * * * * * * * * * * * * * * * * * * * * //

dimensions      [1 -1 -2 0 0 0 0];

internalField   nonuniform List<scalar> 
75
(
1
1
1
1
1
1
1
1
1
1
1
1
1
1
1
1
1
1
1
1
1
1
1
1
1
1.27635
1.75076
2.30957
3.02506
3.65542
4.35186
4.75329
4.67928
4.32888
3.66912
1.00776
1.03455
1.14363
1.31867
1.70156
2.1845
2.80353
3.26192
3.55983
3.57427
1.00003
0.999805
1.00119
1.00591
1.05133
1.18074
1.6807
2.74551
3.34008
3.87014
1
0.999939
0.999948
0.999881
1.00019
1.00231
1.06422
1.46614
2.36541
4.03372
1
0.999998
0.99999
0.999937
0.999943
0.999913
1.00069
1.02915
1.54053
4.57681
)
;

boundaryField
{
    inlet
    {
        type            fixedValue;
        value           uniform 1;
    }
    outlet
    {
        type            zeroGradient;
    }
    bottom
    {
        type            symmetryPlane;
    }
    top
    {
        type            symmetryPlane;
    }
    obstacle
    {
        type            zeroGradient;
    }
    defaultFaces
    {
        type            empty;
    }
}


// ************************************************************************* //
