/*--------------------------------*- C++ -*----------------------------------*\
| =========                 |                                                 |
| \\      /  F ield         | OpenFOAM: The Open Source CFD Toolbox           |
|  \\    /   O peration     | Version:  2206                                  |
|   \\  /    A nd           | Website:  www.openfoam.com                      |
|    \\/     M anipulation  |                                                 |
\*---------------------------------------------------------------------------*/
FoamFile
{
    version     2.0;
    format      ascii;
    arch        "LSB;label=32;scalar=64";
    class       volScalarField;
    location    "0.1";
    object      rho;
}
// * * * * * * * * * * * * * * * * * * * * * * * * * * * * * * * * * * * * * //

dimensions      [1 -3 0 0 0 0 0];

internalField   nonuniform List<scalar> 
4800
(
1.40001
1.40001
1.40001
1.40001
1.40001
1.40001
1.40001
1.40001
1.40001
1.40001
1.40001
1.40001
1.40001
1.40001
1.40001
1.40001
1.40001
1.40001
1.40001
1.40001
1.40001
1.40001
1.40001
1.40001
1.40001
1.40001
1.40001
1.40001
1.40001
1.40001
1.40001
1.40001
1.40001
1.40001
1.40001
1.40001
1.40001
1.40001
1.40001
1.40001
1.40001
1.40001
1.40001
1.40001
1.40001
1.40001
1.40001
1.40001
1.40001
1.40001
1.40001
1.40001
1.40001
1.40001
1.40001
1.40001
1.40001
1.40001
1.40001
1.40001
1.40001
1.40001
1.40001
1.40001
1.40001
1.40001
1.40001
1.40001
1.40001
1.40001
1.40001
1.40001
1.40001
1.40001
1.40001
1.40001
1.40001
1.40001
1.40001
1.40001
1.40001
1.40001
1.40001
1.40001
1.40001
1.40001
1.40001
1.40001
1.40001
1.40001
1.40001
1.40001
1.40001
1.40001
1.40001
1.40001
1.40001
1.40001
1.40001
1.40001
1.40001
1.40001
1.40001
1.40001
1.40001
1.40001
1.40001
1.40001
1.40001
1.40001
1.40001
1.40001
1.40001
1.40001
1.40001
1.40001
1.40001
1.40001
1.40001
1.40001
1.40001
1.40001
1.40001
1.40001
1.40001
1.40001
1.40001
1.40001
1.40001
1.40001
1.40001
1.40001
1.40001
1.40001
1.40001
1.40001
1.40001
1.40001
1.40001
1.40001
1.40001
1.40001
1.40001
1.40001
1.40001
1.40001
1.40001
1.40001
1.40001
1.40001
1.40001
1.40001
1.40001
1.40001
1.40001
1.40001
1.40001
1.40001
1.40001
1.40001
1.40001
1.40001
1.40001
1.40001
1.40001
1.40001
1.40001
1.40001
1.40001
1.40001
1.40001
1.40001
1.40001
1.40001
1.40001
1.40001
1.40001
1.40001
1.40001
1.40001
1.40001
1.40001
1.40001
1.40001
1.40001
1.40001
1.40001
1.40001
1.40001
1.40001
1.40001
1.40001
1.40001
1.40001
1.40001
1.40001
1.40001
1.40001
1.40001
1.40001
1.40001
1.40001
1.40001
1.40001
1.40001
1.40001
1.40001
1.40001
1.40001
1.40001
1.40001
1.40001
1.40001
1.40001
1.40001
1.40001
1.40001
1.40001
1.40001
1.40001
1.40001
1.40001
1.40001
1.40001
1.40001
1.40001
1.40001
1.40001
1.40001
1.40001
1.40001
1.40001
1.40001
1.40001
1.40001
1.40001
1.40001
1.40001
1.40001
1.40001
1.40001
1.40001
1.40001
1.40001
1.40001
1.40001
1.40001
1.40001
1.40001
1.40001
1.40001
1.40001
1.40001
1.40001
1.40001
1.40001
1.40001
1.40001
1.40001
1.40001
1.40001
1.40001
1.40001
1.40001
1.40001
1.40001
1.40001
1.40001
1.40001
1.40001
1.40001
1.40001
1.40001
1.40001
1.40001
1.40001
1.40001
1.40001
1.40001
1.40001
1.40001
1.40001
1.40001
1.40001
1.40001
1.40001
1.40001
1.40001
1.40001
1.40001
1.40001
1.40001
1.40001
1.40001
1.40001
1.40001
1.40001
1.40001
1.40001
1.40001
1.40001
1.40001
1.40001
1.40001
1.40001
1.40001
1.40001
1.40001
1.40001
1.40001
1.40001
1.40001
1.40001
1.40001
1.40001
1.40001
1.40001
1.40001
1.40001
1.40001
1.40001
1.40001
1.40001
1.40001
1.40001
1.40001
1.40001
1.40001
1.40001
1.40001
1.40001
1.40001
1.40001
1.40001
1.40001
1.40001
1.40001
1.40001
1.40001
1.40001
1.40001
1.40001
1.40001
1.40001
1.40001
1.40001
1.40001
1.40001
1.40001
1.40001
1.40001
1.40001
1.40001
1.40001
1.40001
1.40001
1.40001
1.40001
1.40001
1.40001
1.40001
1.40001
1.40001
1.40001
1.40001
1.40001
1.40001
1.40001
1.40001
1.40001
1.40001
1.40001
1.40001
1.40001
1.40001
1.40001
1.40001
1.40001
1.40001
1.40001
1.40001
1.40001
1.40001
1.40001
1.40001
1.40001
1.40001
1.40001
1.40001
1.40001
1.40001
1.40001
1.40001
1.40001
1.40001
1.40001
1.40001
1.40001
1.40001
1.40001
1.40001
1.40001
1.40001
1.40001
1.40001
1.40001
1.40001
1.40001
1.40001
1.40001
1.40001
1.40001
1.40001
1.40001
1.40001
1.40001
1.40001
1.40001
1.40001
1.40001
1.40001
1.40001
1.40001
1.40001
1.40001
1.40001
1.40001
1.40001
1.40001
1.40001
1.40001
1.40001
1.40001
1.40001
1.40001
1.40001
1.40001
1.40001
1.40001
1.40001
1.40001
1.40001
1.40001
1.40001
1.40001
1.40001
1.40001
1.40001
1.40001
1.40001
1.40001
1.40001
1.40001
1.40001
1.40001
1.40001
1.40001
1.40001
1.40001
1.40001
1.40001
1.40001
1.40001
1.40001
1.40001
1.40001
1.40001
1.40001
1.40001
1.40001
1.40001
1.40001
1.40001
1.40001
1.40001
1.40001
1.40001
1.40001
1.40001
1.40001
1.40001
1.40001
1.40001
1.40001
1.40001
1.40001
1.40001
1.40001
1.40001
1.40001
1.40001
1.40001
1.40001
1.40001
1.40001
1.40001
1.40001
1.40001
1.40001
1.40001
1.40001
1.40001
1.40001
1.40001
1.40001
1.40001
1.40001
1.40001
1.40001
1.40001
1.40001
1.40001
1.40001
1.40001
1.40001
1.40001
1.40001
1.40001
1.40001
1.40001
1.40001
1.40001
1.40001
1.40001
1.40001
1.40001
1.40001
1.40001
1.40001
1.40001
1.40001
1.40001
1.40001
1.40001
1.40001
1.40001
1.40001
1.40001
1.40001
1.40001
1.40001
1.40001
1.40001
1.40001
1.40001
1.40001
1.40001
1.40001
1.40001
1.40001
1.40001
1.40001
1.40001
1.40001
1.40001
1.40001
1.40001
1.40001
1.40001
1.40001
1.40001
1.40001
1.40001
1.40001
1.40001
1.40001
1.40001
1.40001
1.40001
1.40001
1.40001
1.40001
1.40001
1.40001
1.40001
1.40001
1.40001
1.40001
1.40001
1.40001
1.40001
1.40001
1.40001
1.40001
1.40001
1.40001
1.40001
1.40001
1.40001
1.40001
1.40001
1.40001
1.40001
1.40001
1.40001
1.40001
1.40001
1.40001
1.40001
1.40001
1.40001
1.40001
1.40001
1.40001
1.40001
1.40001
1.40001
1.40001
1.40001
1.40001
1.40001
1.40001
1.40001
1.40001
1.40001
1.40001
1.40001
1.40001
1.40001
1.40001
1.40001
1.40001
1.40001
1.40001
1.40001
1.40001
1.40001
1.40001
1.40001
1.40001
1.40001
1.40001
1.40001
1.40001
1.40001
1.40001
1.40001
1.40001
1.40001
1.40001
1.40001
1.40001
1.40001
1.40001
1.40001
1.40001
1.40001
1.40001
1.40001
1.40001
1.40001
1.40001
1.40001
1.40001
1.40001
1.40001
1.40001
1.40001
1.40001
1.40001
1.40001
1.40001
1.40001
1.40001
1.40001
1.40001
1.40001
1.40001
1.40001
1.40001
1.40001
1.40001
1.40001
1.40001
1.40001
1.40001
1.40001
1.40001
1.40001
1.40001
1.40001
1.40001
1.40001
1.40001
1.40001
1.40001
1.40001
1.40001
1.40001
1.40001
1.40001
1.40001
1.40001
1.40001
1.40001
1.40001
1.40001
1.40001
1.40001
1.40001
1.40001
1.40001
1.40001
1.40001
1.40001
1.40001
1.40001
1.40001
1.40001
1.40001
1.40001
1.40001
1.40001
1.40001
1.40001
1.40001
1.40001
1.40001
1.40001
1.40001
1.40001
1.40001
1.40001
1.40001
1.40001
1.40001
1.40001
1.40001
1.40001
1.40001
1.40001
1.40001
1.40001
1.40001
1.40001
1.40001
1.40001
1.40001
1.40001
1.40001
1.40001
1.40001
1.40001
1.40001
1.40001
1.40001
1.40001
1.40001
1.40001
1.40001
1.40001
1.40001
1.40001
1.40001
1.40001
1.40001
1.40001
1.40001
1.40001
1.40001
1.40001
1.40001
1.40001
1.40001
1.40001
1.40001
1.40001
1.40001
1.40001
1.40001
1.40001
1.40001
1.40001
1.40001
1.40001
1.40001
1.40001
1.40001
1.40001
1.40001
1.40001
1.40001
1.40001
1.40001
1.40001
1.40001
1.40001
1.40001
1.40001
1.40001
1.40001
1.40001
1.40001
1.40001
1.40001
1.40001
1.40001
1.40001
1.40001
1.40001
1.40001
1.40001
1.40001
1.40001
1.40001
1.40001
1.40001
1.40001
1.40001
1.40001
1.40001
1.40001
1.40001
1.40001
1.40001
1.40001
1.40001
1.40001
1.40001
1.40001
1.40001
1.40001
1.40001
1.40001
1.40001
1.40001
1.40001
1.40001
1.40001
1.40001
1.40001
1.40001
1.40001
1.40001
1.40001
1.40001
1.40001
1.40001
1.40001
1.40001
1.40001
1.40001
1.40001
1.40001
1.40001
1.40001
1.40001
1.40001
1.40001
1.40001
1.40001
1.40001
1.40001
1.40001
1.40001
1.40001
1.40001
1.40001
1.40001
1.40001
1.40001
1.40001
1.40001
1.40001
1.40001
1.40001
1.40001
1.40001
1.40001
1.40001
1.40001
1.40001
1.40001
1.40001
1.40001
1.40001
1.40001
1.40001
1.40001
1.40001
1.40001
1.40001
1.40001
1.40001
1.40001
1.40001
1.40001
1.40001
1.40001
1.40001
1.40001
1.40001
1.40001
1.40001
1.40001
1.40001
1.40001
1.40001
1.40001
1.40001
1.40001
1.40001
1.40001
1.40001
1.40001
1.40001
1.40001
1.40001
1.40001
1.40001
1.40001
1.40001
1.40001
1.40001
1.40001
1.40001
1.40001
1.40001
1.40001
1.40001
1.40001
1.40001
1.40001
1.40001
1.40001
1.40001
1.40001
1.40001
1.40001
1.40001
1.40001
1.40001
1.40001
1.40001
1.40001
1.40001
1.40001
1.40001
1.40001
1.40001
1.40001
1.40001
1.40001
1.40001
1.40001
1.40001
1.40001
1.40001
1.40001
1.40001
1.40001
1.40001
1.40001
1.40001
1.40001
1.40001
1.40001
1.40001
1.40001
1.40001
1.40001
1.40001
1.40001
1.40001
1.40001
1.40001
1.40001
1.40001
1.40001
1.40001
1.40001
1.40001
1.40001
1.40001
1.40001
1.40001
1.40001
1.40001
1.40001
1.40001
1.40001
1.40001
1.40001
1.40001
1.40001
1.40001
1.40001
1.40001
1.40001
1.40001
1.40001
1.40001
1.40001
1.40001
1.40001
1.40001
1.40001
1.40001
1.40001
1.40001
1.40001
1.40001
1.40001
1.40001
1.40001
1.40001
1.40001
1.40001
1.40001
1.40001
1.40001
1.40001
1.40001
1.40001
1.40001
1.40001
1.40001
1.40001
1.40001
1.40001
1.40001
1.40001
1.40001
1.40001
1.40001
1.40001
1.40001
1.40001
1.40001
1.40001
1.40001
1.40001
1.40001
1.40001
1.40001
1.40001
1.40001
1.40001
1.40001
1.40001
1.40001
1.40001
1.40001
1.40001
1.40001
1.40001
1.40001
1.40001
1.40001
1.40001
1.40001
1.40001
1.40001
1.40001
1.40001
1.40001
1.40001
1.40001
1.40001
1.40001
1.40001
1.40001
1.40001
1.40001
1.40001
1.40001
1.40001
1.40001
1.40001
1.40001
1.40001
1.40001
1.40001
1.40001
1.40001
1.40001
1.40001
1.40001
1.40001
1.40001
1.40001
1.40001
1.40001
1.40001
1.40001
1.40001
1.40001
1.40001
1.40001
1.40001
1.40001
1.40001
1.40001
1.40001
1.40001
1.40001
1.40001
1.40001
1.40001
1.40001
1.40001
1.40001
1.40001
1.40001
1.40001
1.40001
1.40001
1.40001
1.40001
1.40001
1.40001
1.40001
1.40001
1.40001
1.40001
1.40001
1.40001
1.40001
1.40001
1.40001
1.40001
1.40001
1.40001
1.40001
1.40001
1.40001
1.40001
1.40001
1.40001
1.40001
1.40001
1.40001
1.40001
1.40001
1.40001
1.40001
1.40001
1.40001
1.40001
1.40001
1.40001
1.40001
1.40001
1.40001
1.40001
1.40001
1.40001
1.40001
1.40001
1.40001
1.40001
1.40001
1.40001
1.40001
1.40001
1.40001
1.40001
1.40001
1.40001
1.40001
1.40001
1.40001
1.40001
1.40001
1.40001
1.40001
1.40001
1.40001
1.40001
1.40001
1.40001
1.40001
1.40001
1.40001
1.40001
1.40001
1.40001
1.40001
1.40001
1.40001
1.40001
1.40001
1.40001
1.40001
1.40001
1.40001
1.40001
1.40001
1.40001
1.40001
1.40001
1.40001
1.40001
1.40001
1.40001
1.40001
1.40001
1.40001
1.40001
1.40001
1.40001
1.40001
1.40001
1.40001
1.40001
1.40001
1.40001
1.40001
1.40001
1.40001
1.40001
1.40001
1.40001
1.40001
1.40001
1.40001
1.40001
1.40001
1.40001
1.40001
1.40001
1.40001
1.40001
1.40001
1.40001
1.40001
1.40001
1.40001
1.40001
1.40001
1.40001
1.40001
1.40001
1.40001
1.40001
1.40001
1.40001
1.40001
1.40001
1.40001
1.40001
1.40001
1.40001
1.40001
1.40001
1.40001
1.40001
1.40001
1.40001
1.40001
1.40001
1.40001
1.40001
1.40001
1.40001
1.40001
1.40001
1.40001
1.40001
1.40001
1.40001
1.40001
1.40001
1.40001
1.40001
1.40001
1.40001
1.40001
1.40001
1.40001
1.40001
1.40001
1.40001
1.40001
1.40001
1.40001
1.40001
1.40001
1.40001
1.40001
1.40001
1.40001
1.40001
1.40001
1.40001
1.40001
1.40001
1.40001
1.40001
1.40001
1.40001
1.40001
1.40001
1.40001
1.40001
1.40001
1.40001
1.40001
1.40001
1.40001
1.40001
1.40001
1.40001
1.40001
1.40001
1.40001
1.40001
1.40001
1.40001
1.40001
1.40001
1.40001
1.40001
1.40001
1.40001
1.40001
1.40001
1.40001
1.40001
1.40001
1.40001
1.40001
1.40001
1.40001
1.40001
1.40001
1.40001
1.40001
1.40001
1.40001
1.40001
1.40001
1.40001
1.40001
1.40001
1.40001
1.40001
1.40001
1.40001
1.40001
1.40001
1.40001
1.40001
1.40001
1.40001
1.40001
1.40001
1.40001
1.40001
1.40001
1.40001
1.40001
1.40001
1.40001
1.40001
1.40001
1.40001
1.40001
1.40001
1.40001
1.40001
1.40001
1.40001
1.40001
1.40001
1.40001
1.40001
1.40001
1.40001
1.40001
1.40001
1.40001
1.40001
1.40001
1.40001
1.40001
1.40001
1.40001
1.40001
1.40001
1.40001
1.40001
1.40001
1.40001
1.40001
1.40001
1.40001
1.40001
1.40001
1.40001
1.40001
1.40001
1.40001
1.40001
1.40001
1.40001
1.40001
1.40001
1.40001
1.40001
1.40001
1.40001
1.40001
1.40001
1.40001
1.40001
1.40001
1.40001
1.40001
1.40001
1.40001
1.40001
1.40001
1.40001
1.40001
1.40001
1.40001
1.40001
1.40001
1.40001
1.40001
1.40001
1.40001
1.40001
1.40001
1.40001
1.40001
1.40001
1.40001
1.40001
1.40001
1.40001
1.40001
1.40001
1.40001
1.40001
1.40001
1.40001
1.40001
1.40001
1.40001
1.40001
1.40001
1.40001
1.40001
1.40001
1.40001
1.40001
1.40001
1.40001
1.40001
1.40001
1.40001
1.40001
1.40001
1.40001
1.40001
1.40001
1.40001
1.40001
1.40001
1.40001
1.40001
1.40001
1.40001
1.40001
1.40001
1.40001
1.40001
1.40001
1.40001
1.40001
1.40001
1.40001
1.40001
1.40001
1.40001
1.40001
1.40001
1.40001
1.40001
1.40001
1.40001
1.40001
1.40001
1.40001
1.40001
1.40001
1.40001
1.40001
1.40001
1.40001
1.40001
1.40001
1.40001
1.40001
1.40001
1.40001
1.40001
1.40001
1.40001
1.40001
1.40001
1.40001
1.40001
1.40001
1.40001
1.40001
1.40001
1.40001
1.40001
1.40001
1.40001
1.40001
1.40001
1.40001
1.40001
1.40001
1.40001
1.40001
1.40001
1.40001
1.40001
1.40001
1.40001
1.40001
1.40001
1.40001
1.40001
1.40001
1.40001
1.40001
1.40001
1.40001
1.40001
1.40001
1.40001
1.40001
1.40001
1.40001
1.40001
1.40001
1.40001
1.40001
1.40001
1.40001
1.40001
1.40001
1.40001
1.40001
1.40001
1.40001
1.40001
1.40001
1.40001
1.40001
1.40001
1.40001
1.40001
1.40001
1.40001
1.40001
1.40001
1.40001
1.40001
1.40001
1.40001
1.40001
1.40001
1.40001
1.40001
1.40001
1.40001
1.40001
1.40001
1.40001
1.40001
1.40001
1.40001
1.40001
1.40001
1.40001
1.40001
1.40001
1.40001
1.40001
1.40001
1.40001
1.40001
1.40001
1.40001
1.40001
1.40001
1.40001
1.40001
1.40001
1.40001
1.40001
1.40001
1.40001
1.65647
2.02093
2.45179
2.81121
3.13572
3.50156
3.73608
3.95454
4.11947
4.17195
4.15619
4.06329
3.88175
3.68582
3.47924
3.31929
3.24513
3.22689
3.21256
3.21104
3.23012
3.25521
3.28188
3.30531
3.31594
3.31613
3.31317
3.31513
3.32349
3.32595
3.3246
3.31931
3.31339
3.31318
3.31864
3.32442
3.32815
3.33036
3.3325
3.33543
3.33786
3.33918
3.3394
3.33496
3.32569
3.31839
3.31473
3.31364
3.31384
3.31583
3.31897
3.32114
3.32198
3.32241
3.3231
3.32475
3.32736
3.33101
3.33265
3.33013
3.32368
3.31341
3.29776
3.27757
3.25933
3.24317
3.22438
3.21011
3.20657
3.20477
3.20345
3.20303
3.20011
3.19693
3.19441
3.19044
3.18366
3.17655
3.17312
3.16712
1.40198
1.41234
1.43578
1.53062
1.65384
1.83397
2.09687
2.37309
2.68971
2.95185
3.23443
3.35531
3.43284
3.55394
3.50775
3.47624
3.43372
3.39674
3.36862
3.32753
3.30613
3.27648
3.26067
3.26576
3.27642
3.28639
3.29531
3.30685
3.31708
3.31795
3.31685
3.31345
3.31161
3.3136
3.31562
3.31636
3.31617
3.3154
3.31588
3.31945
3.32315
3.32495
3.32579
3.32381
3.31934
3.31854
3.31887
3.32053
3.32367
3.32585
3.32637
3.32632
3.32528
3.32333
3.32199
3.32168
3.32157
3.32102
3.32065
3.3182
3.31202
3.30214
3.28758
3.26806
3.24859
3.23406
3.21942
3.21066
3.20816
3.20647
3.20451
3.2018
3.19756
3.19199
3.18698
3.1824
3.17736
3.17254
3.17021
3.16728
1.40001
1.4
1.39997
1.40006
1.40053
1.40359
1.41948
1.46353
1.57749
1.7968
2.12441
2.59865
3.06805
3.40659
3.50628
3.56891
3.57912
3.5569
3.50437
3.43087
3.30617
3.2432
3.23009
3.23823
3.24956
3.25799
3.27031
3.28622
3.29321
3.29466
3.29602
3.2965
3.29926
3.30446
3.30697
3.30863
3.30775
3.30431
3.30066
3.29821
3.29687
3.29707
3.29745
3.29845
3.30181
3.30635
3.31023
3.31464
3.3194
3.32204
3.32266
3.32272
3.32187
3.31993
3.31854
3.31762
3.31544
3.31255
3.3101
3.3063
3.29923
3.28887
3.27497
3.25684
3.23617
3.22209
3.21193
3.20714
3.2049
3.20348
3.20156
3.19839
3.19371
3.18726
3.17925
3.17218
3.16823
3.16667
3.1662
3.1648
1.40001
1.40001
1.4
1.4
1.4
1.4
1.40001
1.40001
1.4001
1.40277
1.41681
1.51244
1.73494
2.15564
2.63509
3.01037
3.33275
3.37448
3.38519
3.3871
3.36461
3.34154
3.31852
3.30033
3.27937
3.25563
3.22869
3.22456
3.22824
3.23995
3.25457
3.26989
3.27873
3.28645
3.29146
3.29245
3.29136
3.28761
3.28413
3.28194
3.28017
3.2796
3.27886
3.27801
3.27883
3.28168
3.28661
3.29378
3.30123
3.30697
3.31017
3.31102
3.31052
3.30882
3.30781
3.30717
3.30599
3.30338
3.29941
3.29422
3.28647
3.27562
3.26174
3.24506
3.22499
3.20668
3.19913
3.19677
3.19666
3.19694
3.19518
3.192
3.18715
3.17924
3.16927
3.16074
3.1575
3.15647
3.15608
3.15744
1.40001
1.40001
1.40001
1.40001
1.40001
1.4
1.4
1.4
1.4
1.4
1.40001
1.40003
1.40203
1.42441
1.56256
1.81097
2.25981
2.70582
3.09031
3.3405
3.39891
3.41975
3.40877
3.38235
3.34232
3.2707
3.20308
3.19527
3.20241
3.2208
3.23162
3.2385
3.24596
3.25342
3.26007
3.26432
3.26925
3.27254
3.27266
3.27421
3.27512
3.27443
3.27139
3.26817
3.26742
3.26742
3.26951
3.27344
3.27645
3.2789
3.28084
3.28213
3.28369
3.28662
3.29041
3.29259
3.29263
3.29093
3.28741
3.28233
3.27465
3.2637
3.25011
3.23458
3.2168
3.19665
3.18704
3.18444
3.18403
3.18549
3.18421
3.18144
3.17735
3.17083
3.16189
3.15296
3.14914
3.14715
3.14545
3.14451
1.40001
1.40001
1.40001
1.40001
1.40001
1.40001
1.40001
1.40001
1.40001
1.4
1.4
1.4
1.40001
1.39998
1.40029
1.40426
1.44462
1.62374
1.91929
2.38468
2.77575
3.13194
3.2859
3.29129
3.30643
3.30831
3.26724
3.2456
3.24825
3.24801
3.24215
3.22977
3.2104
3.20949
3.21289
3.22288
3.23945
3.25548
3.26838
3.27736
3.28036
3.28072
3.27873
3.27358
3.26586
3.26345
3.26292
3.26428
3.2659
3.26475
3.26339
3.26391
3.26582
3.26923
3.27323
3.27625
3.27672
3.27598
3.274
3.26998
3.26282
3.25207
3.23836
3.22329
3.2078
3.18848
3.17773
3.17464
3.17297
3.17172
3.16947
3.16624
3.16254
3.15835
3.15326
3.14811
3.1441
3.14032
3.13699
3.13425
1.40001
1.40001
1.40001
1.40001
1.40001
1.40001
1.40001
1.40001
1.40001
1.40001
1.40001
1.40001
1.40001
1.4
1.4
1.40001
1.39999
1.40105
1.40997
1.48375
1.69767
2.04503
2.50173
2.86015
3.19892
3.29461
3.32924
3.32814
3.31874
3.30092
3.27495
3.24284
3.20797
3.19682
3.19877
3.20776
3.22179
3.23636
3.25297
3.27083
3.27994
3.28139
3.28016
3.27564
3.27279
3.27296
3.2736
3.27194
3.26731
3.26296
3.26049
3.26103
3.26302
3.26527
3.26762
3.26971
3.27008
3.26895
3.26633
3.26152
3.25354
3.24171
3.22658
3.21148
3.19693
3.17896
3.16671
3.16349
3.16122
3.15873
3.15564
3.15242
3.14994
3.14734
3.14463
3.1421
3.1391
3.13636
3.13315
3.12764
1.40001
1.40001
1.40001
1.40001
1.40001
1.40001
1.40001
1.40001
1.40001
1.40001
1.40001
1.40001
1.40001
1.40001
1.4
1.4
1.4
1.4
1.39999
1.40009
1.40267
1.42041
1.54358
1.79871
2.20404
2.63077
2.95988
3.22638
3.26562
3.27386
3.30094
3.29394
3.26856
3.24522
3.23168
3.22371
3.2264
3.23352
3.23829
3.24481
3.25124
3.25622
3.25948
3.26423
3.27037
3.27454
3.27873
3.2803
3.27874
3.27624
3.27274
3.27076
3.27196
3.27288
3.27279
3.27181
3.26984
3.26748
3.26316
3.25618
3.24647
3.23333
3.21724
3.20058
3.18525
3.16895
3.15895
3.15585
3.15409
3.15138
3.14729
3.14285
3.14007
3.13856
3.13736
3.13646
3.135
3.13242
3.12768
3.12167
1.40001
1.40001
1.40001
1.40001
1.40001
1.40001
1.40001
1.40001
1.40001
1.40001
1.40001
1.40001
1.40001
1.40001
1.40001
1.40001
1.40001
1.40001
1.4
1.4
1.40001
1.39999
1.40057
1.40683
1.44534
1.64184
1.96558
2.43403
2.78101
3.07748
3.25255
3.29683
3.30602
3.30367
3.28966
3.26766
3.25976
3.25213
3.24675
3.24163
3.23794
3.23706
3.23878
3.24196
3.24947
3.25963
3.27171
3.28156
3.28306
3.28229
3.28152
3.28035
3.28096
3.28186
3.28152
3.27962
3.27633
3.27031
3.26387
3.25554
3.24429
3.23062
3.21434
3.19544
3.1766
3.16299
3.15871
3.15738
3.15499
3.15162
3.14652
3.14013
3.13537
3.13277
3.13092
3.12938
3.12787
3.12572
3.1234
3.11992
1.40001
1.40001
1.40001
1.40001
1.40001
1.40001
1.40001
1.40001
1.40001
1.40001
1.40001
1.40001
1.40001
1.40001
1.40001
1.40001
1.40001
1.40001
1.40001
1.4
1.4
1.4
1.4
1.4
1.40003
1.40252
1.41862
1.51309
1.78689
2.15884
2.60513
2.90042
3.14887
3.27191
3.27967
3.28597
3.3086
3.31
3.30446
3.29216
3.27282
3.25187
3.24043
3.24018
3.24597
3.25697
3.26742
3.27329
3.27318
3.27207
3.27309
3.2753
3.27772
3.28038
3.28237
3.28133
3.27937
3.27709
3.27238
3.26407
3.25231
3.23786
3.22089
3.20056
3.17659
3.16503
3.16244
3.16188
3.15999
3.15697
3.1527
3.1459
3.13717
3.1316
3.12686
3.12283
3.11981
3.11877
3.12036
3.11868
1.40001
1.40001
1.40001
1.40001
1.40001
1.40001
1.40001
1.40001
1.40001
1.40001
1.40001
1.40001
1.40001
1.40001
1.40001
1.40001
1.40001
1.40001
1.40001
1.40001
1.40001
1.40001
1.40001
1.4
1.4
1.40001
1.4
1.40046
1.40841
1.44411
1.62632
1.97437
2.44786
2.7843
3.04171
3.20871
3.27734
3.3198
3.32898
3.3257
3.30919
3.29445
3.2817
3.2741
3.27421
3.27921
3.28233
3.28048
3.2779
3.27493
3.27293
3.27269
3.27358
3.27396
3.27441
3.27629
3.27737
3.27657
3.27433
3.2683
3.25709
3.24272
3.22708
3.20923
3.18388
3.17053
3.16739
3.16621
3.16372
3.16046
3.15654
3.15152
3.14415
3.1325
3.12405
3.11903
3.1162
3.11527
3.1167
3.11723
1.40001
1.40001
1.40001
1.40001
1.40001
1.40001
1.40001
1.40001
1.40001
1.40001
1.40001
1.40001
1.40001
1.40001
1.40001
1.40001
1.40001
1.40001
1.40001
1.40001
1.40001
1.40001
1.40001
1.40001
1.4
1.4
1.4
1.4
1.4
1.40005
1.40298
1.42472
1.52282
1.83412
2.25562
2.69606
2.94521
3.14443
3.24793
3.28919
3.29694
3.30391
3.30548
3.30509
3.3067
3.31448
3.31796
3.31658
3.30863
3.29674
3.28822
3.28441
3.28135
3.27782
3.27645
3.27715
3.27877
3.27806
3.27531
3.26919
3.2586
3.24523
3.23076
3.21231
3.18986
3.17497
3.17064
3.1674
3.16474
3.16165
3.15759
3.15214
3.14622
3.14127
3.13494
3.12706
3.1206
3.11733
3.11587
3.1162
1.40001
1.40001
1.40001
1.40001
1.40001
1.40001
1.40001
1.40001
1.40001
1.40001
1.40001
1.40001
1.40001
1.40001
1.40001
1.40001
1.40001
1.40001
1.40001
1.40001
1.40001
1.40001
1.40001
1.40001
1.40001
1.40001
1.40001
1.40001
1.4
1.4
1.4
1.40002
1.40079
1.41505
1.47044
1.69059
2.11074
2.62848
2.9233
3.09
3.18725
3.24902
3.26848
3.27976
3.30748
3.32421
3.33081
3.33012
3.32276
3.31452
3.31135
3.31174
3.30982
3.30189
3.29452
3.2914
3.28903
3.2863
3.2826
3.2763
3.26531
3.25052
3.23322
3.21445
3.19624
3.18192
3.17335
3.16759
3.16254
3.15742
3.15218
3.14839
3.14629
3.14435
3.1405
3.13413
3.1263
3.12266
3.121
3.12058
1.40001
1.40001
1.40001
1.40001
1.40001
1.40001
1.40001
1.40001
1.40001
1.40001
1.40001
1.40001
1.40001
1.40001
1.40001
1.40001
1.40001
1.40001
1.40001
1.40001
1.40001
1.40001
1.40001
1.40001
1.40001
1.40001
1.40001
1.40001
1.40001
1.4
1.4
1.4
1.4
1.40001
1.40025
1.40665
1.45354
1.60913
2.00031
2.49587
2.93873
3.07939
3.17218
3.20301
3.2283
3.26339
3.29302
3.30708
3.30665
3.30624
3.3081
3.31366
3.31759
3.31514
3.31323
3.31273
3.31163
3.30813
3.30231
3.29306
3.27876
3.26026
3.23949
3.22018
3.20545
3.1948
3.18543
3.17456
3.16219
3.1531
3.14854
3.14596
3.14479
3.14512
3.14201
3.13642
3.13076
3.12756
3.12594
3.12581
1.40001
1.40001
1.40001
1.40001
1.40001
1.40001
1.40001
1.40001
1.40001
1.40001
1.40001
1.40001
1.40001
1.40001
1.40001
1.40001
1.40001
1.40001
1.40001
1.40001
1.40001
1.40001
1.40001
1.40001
1.40001
1.40001
1.40001
1.40001
1.40001
1.40001
1.40001
1.40001
1.40001
1.4
1.4
1.4
1.40018
1.40302
1.44162
1.56601
1.91058
2.39197
2.93877
3.1597
3.19347
3.24651
3.26107
3.27221
3.27183
3.2685
3.26984
3.27865
3.29389
3.30972
3.31702
3.32023
3.3209
3.31848
3.31144
3.30083
3.28642
3.26829
3.24652
3.22506
3.21062
3.20338
3.19759
3.18926
3.1764
3.16007
3.15047
3.14749
3.14573
3.1454
3.14578
3.14183
3.13629
3.13231
3.12999
3.12958
1.40001
1.40001
1.40001
1.40001
1.40001
1.40001
1.40001
1.40001
1.40001
1.40001
1.40001
1.40001
1.40001
1.40001
1.40001
1.40001
1.40001
1.40001
1.40001
1.40001
1.40001
1.40001
1.40001
1.40001
1.40001
1.40001
1.40001
1.40001
1.40001
1.40001
1.40001
1.40001
1.40001
1.40001
1.40001
1.4
1.4
1.4
1.40014
1.40199
1.42895
1.55144
1.88608
2.38251
2.85183
3.17468
3.26628
3.2939
3.29059
3.27042
3.26895
3.27026
3.27537
3.29147
3.30256
3.30704
3.30737
3.30631
3.30284
3.2952
3.28297
3.26605
3.24679
3.22517
3.20926
3.20215
3.19753
3.19256
3.1869
3.17668
3.16184
3.15446
3.15185
3.15088
3.15341
3.15374
3.14864
3.14172
3.13597
3.13382
1.40001
1.40001
1.40001
1.40001
1.40001
1.40001
1.40001
1.40001
1.40001
1.40001
1.40001
1.40001
1.40001
1.40001
1.40001
1.40001
1.40001
1.40001
1.40001
1.40001
1.40001
1.40001
1.40001
1.40001
1.40001
1.40001
1.40001
1.40001
1.40001
1.40001
1.40001
1.40001
1.40001
1.40001
1.40001
1.40001
1.40001
1.4
1.4
1.4
1.40009
1.40193
1.42327
1.56529
1.87078
2.36634
2.84985
3.17767
3.27793
3.29501
3.3214
3.32387
3.313
3.30993
3.31267
3.31287
3.30882
3.30354
3.29841
3.28987
3.27751
3.26237
3.2447
3.22145
3.19933
3.19155
3.191
3.19303
3.18986
3.18347
3.17207
3.16172
3.15863
3.15715
3.15695
3.15951
3.1626
3.15931
3.15117
3.14397
1.40001
1.40001
1.40001
1.40001
1.40001
1.40001
1.40001
1.40001
1.40001
1.40001
1.40001
1.40001
1.40001
1.40001
1.40001
1.40001
1.40001
1.40001
1.40001
1.40001
1.40001
1.40001
1.40001
1.40001
1.40001
1.40001
1.40001
1.40001
1.40001
1.40001
1.40001
1.40001
1.40001
1.40001
1.40001
1.40001
1.40001
1.40001
1.4
1.4
1.4
1.4
1.40006
1.40255
1.42183
1.56412
1.8936
2.40666
2.84465
3.14569
3.26702
3.31599
3.33896
3.34131
3.34087
3.34006
3.33629
3.32733
3.31663
3.3034
3.2879
3.27063
3.25126
3.22472
3.1984
3.18969
3.18802
3.19034
3.19011
3.18651
3.17922
3.16744
3.16076
3.15831
3.15716
3.15812
3.16627
3.17356
3.1702
3.1593
1.40001
1.40001
1.40001
1.40001
1.40001
1.40001
1.40001
1.40001
1.40001
1.40001
1.40001
1.40001
1.40001
1.40001
1.40001
1.40001
1.40001
1.40001
1.40001
1.40001
1.40001
1.40001
1.40001
1.40001
1.40001
1.40001
1.40001
1.40001
1.40001
1.40001
1.40001
1.40001
1.40001
1.40001
1.40001
1.40001
1.40001
1.40001
1.40001
1.40001
1.4
1.4
1.4
1.4
1.40006
1.40291
1.4242
1.58351
2.00111
2.53861
2.87883
3.12164
3.26807
3.30885
3.31286
3.3251
3.33118
3.32925
3.32196
3.31125
3.29937
3.28654
3.2717
3.24717
3.21264
3.19588
3.19177
3.19191
3.19297
3.18977
3.18399
3.17473
3.16287
3.15608
3.15324
3.15284
3.15983
3.17353
3.18009
3.17467
1.40001
1.40001
1.40001
1.40001
1.40001
1.40001
1.40001
1.40001
1.40001
1.40001
1.40001
1.40001
1.40001
1.40001
1.40001
1.40001
1.40001
1.40001
1.40001
1.40001
1.40001
1.40001
1.40001
1.40001
1.40001
1.40001
1.40001
1.40001
1.40001
1.40001
1.40001
1.40001
1.40001
1.40001
1.40001
1.40001
1.40001
1.40001
1.40001
1.40001
1.40001
1.40001
1.4
1.4
1.4
1.4
1.40008
1.40469
1.4444
1.62481
2.08305
2.6788
3.0604
3.16345
3.21026
3.25425
3.28156
3.28122
3.28053
3.28203
3.28558
3.28702
3.27833
3.25975
3.23063
3.20494
3.19666
3.19488
3.19277
3.18921
3.18778
3.18547
3.17788
3.16258
3.15112
3.14811
3.14943
3.16147
3.17859
3.18354
1.40001
1.40001
1.40001
1.40001
1.40001
1.40001
1.40001
1.40001
1.40001
1.40001
1.40001
1.40001
1.40001
1.40001
1.40001
1.40001
1.40001
1.40001
1.40001
1.40001
1.40001
1.40001
1.40001
1.40001
1.40001
1.40001
1.40001
1.40001
1.40001
1.40001
1.40001
1.40001
1.40001
1.40001
1.40001
1.40001
1.40001
1.40001
1.40001
1.40001
1.40001
1.40001
1.40001
1.40001
1.4
1.4
1.4
1.40001
1.40026
1.40676
1.47194
1.7144
2.23596
2.81927
3.17607
3.25404
3.26672
3.26532
3.2623
3.25726
3.25554
3.26075
3.25942
3.248
3.2272
3.20423
3.19343
3.18818
3.18433
3.18236
3.18314
3.18927
3.19015
3.18336
3.16727
3.15184
3.14734
3.15043
3.16574
3.1805
1.40001
1.40001
1.40001
1.40001
1.40001
1.40001
1.40001
1.40001
1.40001
1.40001
1.40001
1.40001
1.40001
1.40001
1.40001
1.40001
1.40001
1.40001
1.40001
1.40001
1.40001
1.40001
1.40001
1.40001
1.40001
1.40001
1.40001
1.40001
1.40001
1.40001
1.40001
1.40001
1.40001
1.40001
1.40001
1.40001
1.40001
1.40001
1.40001
1.40001
1.40001
1.40001
1.40001
1.40001
1.40001
1.40001
1.4
1.4
1.4
1.40002
1.40075
1.41347
1.52298
1.86251
2.44231
2.959
3.2366
3.31964
3.32045
3.30228
3.2695
3.26046
3.25659
3.24546
3.22466
3.20178
3.18645
3.17633
3.16846
3.16372
3.16385
3.17523
3.19038
3.19435
3.18934
3.17407
3.15747
3.15203
3.15417
3.1699
1.40001
1.40001
1.40001
1.40001
1.40001
1.40001
1.40001
1.40001
1.40001
1.40001
1.40001
1.40001
1.40001
1.40001
1.40001
1.40001
1.40001
1.40001
1.40001
1.40001
1.40001
1.40001
1.40001
1.40001
1.40001
1.40001
1.40001
1.40001
1.40001
1.40001
1.40001
1.40001
1.40001
1.40001
1.40001
1.40001
1.40001
1.40001
1.40001
1.40001
1.40001
1.40001
1.40001
1.40001
1.40001
1.40001
1.40001
1.40001
1.4
1.4
1.4
1.40006
1.40212
1.43187
1.62515
2.07404
2.64177
3.09786
3.26953
3.29572
3.2958
3.28779
3.27803
3.26354
3.24282
3.22242
3.20688
3.19171
3.17141
3.15676
3.15277
3.15376
3.16635
3.18532
3.19365
3.19245
3.18264
3.16647
3.15889
3.16263
1.40001
1.40001
1.40001
1.40001
1.40001
1.40001
1.40001
1.40001
1.40001
1.40001
1.40001
1.40001
1.40001
1.40001
1.40001
1.40001
1.40001
1.40001
1.40001
1.40001
1.40001
1.40001
1.40001
1.40001
1.40001
1.40001
1.40001
1.40001
1.40001
1.40001
1.40001
1.40001
1.40001
1.40001
1.40001
1.40001
1.40001
1.40001
1.40001
1.40001
1.40001
1.40001
1.40001
1.40001
1.40001
1.40001
1.40001
1.40001
1.40001
1.40001
1.4
1.4
1.4
1.40028
1.40678
1.47447
1.8081
2.40281
2.85016
3.0999
3.24308
3.26771
3.25544
3.24406
3.23022
3.22294
3.22352
3.22157
3.2132
3.19308
3.16345
3.14764
3.14664
3.15383
3.17624
3.19133
3.1908
3.18578
3.17494
3.1666
1.40001
1.40001
1.40001
1.40001
1.40001
1.40001
1.40001
1.40001
1.40001
1.40001
1.40001
1.40001
1.40001
1.40001
1.40001
1.40001
1.40001
1.40001
1.40001
1.40001
1.40001
1.40001
1.40001
1.40001
1.40001
1.40001
1.40001
1.40001
1.40001
1.40001
1.40001
1.40001
1.40001
1.40001
1.40001
1.40001
1.40001
1.40001
1.40001
1.40001
1.40001
1.40001
1.40001
1.40001
1.40001
1.40001
1.40001
1.40001
1.40001
1.40001
1.40001
1.40001
1.4
1.4
1.40002
1.40135
1.42631
1.5764
2.06906
2.70855
3.11247
3.17317
3.18455
3.17831
3.16563
3.16341
3.18135
3.21364
3.2256
3.22087
3.20782
3.17878
3.14917
3.14387
3.14892
3.1682
3.18941
3.19452
3.19278
3.18164
1.40001
1.40001
1.40001
1.40001
1.40001
1.40001
1.40001
1.40001
1.40001
1.40001
1.40001
1.40001
1.40001
1.40001
1.40001
1.40001
1.40001
1.40001
1.40001
1.40001
1.40001
1.40001
1.40001
1.40001
1.40001
1.40001
1.40001
1.40001
1.40001
1.40001
1.40001
1.40001
1.40001
1.40001
1.40001
1.40001
1.40001
1.40001
1.40001
1.40001
1.40001
1.40001
1.40001
1.40001
1.40001
1.40001
1.40001
1.40001
1.40001
1.40001
1.40001
1.40001
1.40001
1.4
1.4
1.40001
1.40019
1.40607
1.48716
1.80741
2.41018
2.94447
3.21912
3.23179
3.18802
3.13525
3.12718
3.14149
3.18243
3.21942
3.22371
3.21556
3.19095
3.15817
3.14645
3.14948
3.16637
3.18724
3.19144
3.18727
1.40001
1.40001
1.40001
1.40001
1.40001
1.40001
1.40001
1.40001
1.40001
1.40001
1.40001
1.40001
1.40001