/*--------------------------------*- C++ -*----------------------------------*\
| =========                 |                                                 |
| \\      /  F ield         | OpenFOAM: The Open Source CFD Toolbox           |
|  \\    /   O peration     | Version:  2206                                  |
|   \\  /    A nd           | Website:  www.openfoam.com                      |
|    \\/     M anipulation  |                                                 |
\*---------------------------------------------------------------------------*/
FoamFile
{
    version     2.0;
    format      ascii;
    arch        "LSB;label=32;scalar=64";
    class       volVectorField;
    location    "0.08";
    object      U;
}
// * * * * * * * * * * * * * * * * * * * * * * * * * * * * * * * * * * * * * //

dimensions      [0 1 -1 0 0 0 0];

internalField   nonuniform List<vector> 
4800
(
(4.37374 6.1944e-15 0)
(4.37374 2.61212e-14 0)
(4.37374 3.17021e-14 0)
(4.37374 3.47793e-14 0)
(4.37374 2.19705e-14 0)
(4.37374 -6.99454e-15 0)
(4.37374 -9.83837e-15 0)
(4.37374 -1.07419e-14 0)
(4.37374 -2.39375e-15 0)
(4.37374 3.844e-15 0)
(4.37374 -1.41158e-14 0)
(4.37374 -3.17888e-14 0)
(4.37374 -2.35974e-14 0)
(4.37374 -3.80499e-14 0)
(4.37374 -4.13705e-14 0)
(4.37374 -5.04921e-14 0)
(4.37374 -4.75382e-14 0)
(4.37374 -4.60013e-14 0)
(4.37374 -4.74882e-14 0)
(4.37374 -4.68181e-14 0)
(4.37374 -3.886e-14 0)
(4.37374 2.33374e-15 0)
(4.37374 3.14121e-14 0)
(4.37374 -8.45813e-15 0)
(4.37374 -2.97718e-15 0)
(4.37374 4.86751e-16 0)
(4.37374 1.22888e-14 0)
(4.37374 2.45509e-14 0)
(4.37374 -9.67834e-15 0)
(4.37374 -1.75097e-14 0)
(4.37374 1.91366e-14 0)
(4.37374 1.14993e-13 0)
(4.37374 1.39411e-13 0)
(4.37374 1.15793e-13 0)
(4.37374 5.52562e-14 0)
(4.37374 6.9712e-15 0)
(4.37374 -9.13591e-14 0)
(4.37374 -9.01156e-14 0)
(4.37374 -3.46126e-14 0)
(4.37374 2.27373e-14 0)
(4.37374 -2.17037e-15 0)
(4.37374 2.83849e-14 0)
(4.37374 6.79384e-14 0)
(4.37374 6.17807e-14 0)
(4.37374 6.02571e-14 0)
(4.37374 2.66946e-14 0)
(4.37374 -5.10855e-14 0)
(4.37374 -6.62681e-14 0)
(4.37374 -7.51897e-14 0)
(4.37374 -7.15657e-14 0)
(4.37374 -1.10526e-13 0)
(4.37374 -1.58847e-13 0)
(4.37374 -1.67289e-13 0)
(4.37374 -1.41451e-13 0)
(4.37374 -1.18447e-13 0)
(4.37374 -1.09429e-13 0)
(4.37374 -9.10957e-14 0)
(4.37374 -9.58165e-14 0)
(4.37374 -8.64816e-14 0)
(4.37374 -9.2376e-14 0)
(4.37374 -7.47262e-14 0)
(4.37374 -1.83898e-14 0)
(4.37374 6.80451e-15 0)
(4.37374 3.52127e-14 0)
(4.37374 -6.18107e-15 0)
(4.37374 2.16037e-15 0)
(4.37374 1.23588e-14 0)
(4.37374 1.08119e-14 0)
(4.37374 -1.57627e-14 0)
(4.37374 -3.08587e-14 0)
(4.37374 9.59832e-15 0)
(4.37374 1.18741e-13 0)
(4.37374 1.65785e-13 0)
(4.37374 1.70736e-13 0)
(4.37374 1.69923e-13 0)
(4.37374 2.09069e-14 0)
(4.37374 -1.77771e-13 0)
(4.37374 -1.5286e-13 0)
(4.37374 2.60045e-15 0)
(4.37374 1.28751e-13 0)
(4.37374 -3.91068e-15 0)
(4.37374 -1.02018e-14 0)
(4.37374 1.21854e-14 0)
(4.37374 5.52529e-14 0)
(4.37374 6.02604e-14 0)
(4.37374 4.53545e-14 0)
(4.37374 -1.96034e-15 0)
(4.37374 -1.00947e-13 0)
(4.37374 -1.7367e-13 0)
(4.37374 -1.78127e-13 0)
(4.37374 -1.48329e-13 0)
(4.37374 -1.5608e-13 0)
(4.37374 -1.37317e-13 0)
(4.37374 -1.38904e-13 0)
(4.37374 -1.76794e-13 0)
(4.37374 -2.16267e-13 0)
(4.37374 -2.23599e-13 0)
(4.37374 -2.22645e-13 0)
(4.37374 -2.44496e-13 0)
(4.37374 -1.67559e-13 0)
(4.37374 -6.47145e-14 0)
(4.37374 -4.6038e-14 0)
(4.37374 -3.62463e-14 0)
(4.37374 -8.80485e-15 0)
(4.37374 3.49794e-14 0)
(4.37374 6.15273e-14 0)
(4.37374 3.85233e-14 0)
(4.37374 4.54545e-14 0)
(4.37374 7.709e-14 0)
(4.37374 9.01822e-15 0)
(4.37374 2.48043e-15 0)
(4.37374 1.10136e-13 0)
(4.37374 1.82768e-13 0)
(4.37374 2.08833e-13 0)
(4.37374 1.59661e-13 0)
(4.37374 7.66566e-14 0)
(4.37374 3.51061e-15 0)
(4.37374 -4.34775e-14 0)
(4.37374 -4.23606e-14 0)
(4.37374 -3.50311e-14 0)
(4.37374 -6.30109e-16 0)
(4.37374 -2.75014e-14 0)
(4.37374 -6.95287e-14 0)
(4.37374 -2.61845e-14 0)
(4.37374 -5.95336e-14 0)
(4.37374 -5.96336e-14 0)
(4.37374 -1.28222e-14 0)
(4.37374 -1.07585e-14 0)
(4.37374 3.28457e-14 0)
(4.37374 3.59495e-14 0)
(4.37374 3.48327e-14 0)
(4.37374 4.55079e-15 0)
(4.37374 3.26656e-14 0)
(4.37374 1.20454e-14 0)
(4.37374 -1.41624e-14 0)
(4.37374 -5.9607e-14 0)
(4.37374 -7.20824e-14 0)
(4.37374 -7.52097e-14 0)
(4.37374 -6.07005e-14 0)
(4.37374 -2.66879e-14 0)
(4.37374 -6.3811e-14 0)
(4.37374 -9.21059e-14 0)
(4.37374 -4.72382e-14 0)
(4.37374 6.88519e-14 0)
(4.37374 1.47029e-13 0)
(4.37374 1.08442e-13 0)
(4.37374 3.83266e-14 0)
(4.37374 1.02118e-13 0)
(4.37374 2.38445e-13 0)
(4.37374 2.73671e-13 0)
(4.37374 3.10267e-13 0)
(4.37374 2.73694e-13 0)
(4.37374 2.37061e-13 0)
(4.37374 6.47712e-14 0)
(4.37374 2.41308e-14 0)
(4.37374 -6.01704e-14 0)
(4.37374 -8.39612e-14 0)
(4.37374 -5.88902e-14 0)
(4.37374 -6.44678e-14 0)
(4.37374 9.08333e-15 0)
(4.37374 1.78197e-14 0)
(4.37374 1.57394e-14 0)
(4.37374 -3.49794e-14 0)
(4.37374 -1.24738e-13 0)
(4.37374 -9.94772e-14 0)
(4.37374 -5.5723e-14 0)
(4.37374 -3.12854e-14 0)
(4.37374 9.62833e-14 0)
(4.37374 1.55424e-13 0)
(4.37374 1.61778e-13 0)
(4.37374 1.75254e-13 0)
(4.37374 1.83955e-13 0)
(4.37374 1.28899e-13 0)
(4.37374 1.23355e-13 0)
(4.37374 1.20941e-13 0)
(4.37374 7.29993e-14 0)
(4.37374 2.22038e-14 0)
(4.37374 -1.63695e-15 0)
(4.37374 -4.94419e-15 0)
(4.37374 -5.78367e-14 0)
(4.37374 -5.64031e-14 0)
(4.37374 -8.02472e-14 0)
(4.37374 5.98103e-15 0)
(4.37374 9.2596e-14 0)
(4.37374 1.09039e-13 0)
(4.37374 1.11533e-13 0)
(4.37374 1.64765e-13 0)
(4.37374 1.60334e-13 0)
(4.37374 1.62495e-13 0)
(4.37374 3.16578e-13 0)
(4.37374 3.48357e-13 0)
(4.37374 2.90584e-13 0)
(4.37374 1.5491e-13 0)
(4.37374 -7.50996e-14 0)
(4.37374 -1.00007e-13 0)
(4.37374 -1.26202e-13 0)
(4.37374 -1.39594e-13 0)
(4.37374 -1.60108e-13 0)
(4.37374 -1.92853e-13 0)
(4.37374 -2.04749e-13 0)
(4.37374 8.17141e-15 0)
(4.37374 2.16504e-14 0)
(4.37374 3.46893e-14 0)
(4.37374 -1.12586e-14 0)
(4.37374 -3.55961e-14 0)
(4.37374 -3.53661e-14 0)
(4.37374 -1.72396e-14 0)
(4.37374 -1.71896e-14 0)
(4.37374 -1.60261e-14 0)
(4.37374 2.25606e-14 0)
(4.37374 5.34159e-14 0)
(4.37374 9.675e-14 0)
(4.37374 1.13326e-13 0)
(4.37374 8.96255e-14 0)
(4.37374 4.98219e-14 0)
(4.37374 8.39478e-15 0)
(4.37374 -1.31793e-13 0)
(4.37374 -1.69173e-13 0)
(4.37374 -1.64498e-13 0)
(4.37374 -8.5208e-14 0)
(4.37374 1.53493e-14 0)
(4.37374 3.11821e-14 0)
(4.37374 -1.81431e-14 0)
(4.37374 -7.30559e-14 0)
(4.37374 -6.50646e-14 0)
(4.37374 2.55511e-14 0)
(4.37374 8.23709e-14 0)
(4.37374 6.81018e-14 0)
(4.37374 1.23745e-13 0)
(4.37374 7.79401e-14 0)
(4.37374 5.89869e-14 0)
(4.37374 5.90335e-14 0)
(4.37374 4.00569e-14 0)
(4.37374 -8.58148e-15 0)
(4.37374 -3.54828e-14 0)
(4.37374 -2.07936e-14 0)
(4.37374 -3.77298e-14 0)
(4.37374 -1.76157e-13 0)
(4.37374 -2.77561e-13 0)
(4.37374 -3.02064e-13 0)
(4.37374 -4.0727e-14 0)
(4.37374 -3.2949e-14 0)
(4.37374 -7.14123e-15 0)
(4.37374 5.32492e-14 0)
(4.37374 3.70331e-14 0)
(4.37374 2.03769e-14 0)
(4.37374 1.77297e-14 0)
(4.37374 1.91033e-15 0)
(4.37374 -1.50026e-16 0)
(4.37374 4.87418e-15 0)
(4.37374 -3.80166e-14 0)
(4.37374 -4.10971e-14 0)
(4.37374 -5.34159e-14 0)
(4.37374 -5.54829e-14 0)
(4.37374 -8.25076e-14 0)
(4.37374 -1.09672e-13 0)
(4.37374 -1.06728e-13 0)
(4.37374 -1.39041e-13 0)
(4.37374 -2.03779e-13 0)
(4.37374 -2.04489e-13 0)
(4.37374 -2.52044e-14 0)
(4.37374 7.77501e-14 0)
(4.37374 7.80168e-14 0)
(4.37374 5.25791e-14 0)
(4.37374 5.90935e-14 0)
(4.37374 1.11893e-13 0)
(4.37374 1.00144e-13 0)
(4.37374 1.06675e-13 0)
(4.37374 1.28279e-13 0)
(4.37374 -2.40542e-14 0)
(4.37374 -1.68712e-13 0)
(4.37374 -1.45935e-13 0)
(4.37374 -9.40762e-14 0)
(4.37374 -7.71933e-14 0)
(4.37374 -6.92753e-14 0)
(4.37374 -3.42726e-14 0)
(4.37374 -4.10404e-14 0)
(4.37374 -1.26148e-13 0)
(4.37374 -1.5195e-13 0)
(4.37374 -1.48858e-13 0)
(4.37374 7.17124e-15 0)
(4.37374 4.09737e-15 0)
(4.37374 -6.39444e-15 0)
(4.37374 -2.97718e-14 0)
(4.37374 -2.05435e-14 0)
(4.37374 -9.21826e-15 0)
(4.37374 -3.38992e-14 0)
(4.37374 -2.60145e-14 0)
(4.37374 -5.0292e-14 0)
(4.37374 -9.15525e-14 0)
(4.37374 -7.36627e-14 0)
(4.37374 -4.97886e-14 0)
(4.37374 -6.91886e-14 0)
(4.37374 -5.93069e-14 0)
(4.37374 -7.10623e-14 0)
(4.37374 -6.21074e-14 0)
(4.37374 -1.44892e-14 0)
(4.37374 -7.709e-14 0)
(4.37374 -1.39511e-13 0)
(4.37374 -1.65232e-13 0)
(4.37374 -1.19804e-13 0)
(4.37374 -6.01771e-14 0)
(4.37374 -5.4226e-14 0)
(4.37374 -5.71299e-14 0)
(4.37374 1.66829e-14 0)
(4.37374 7.29359e-14 0)
(4.37374 1.25275e-13 0)
(4.37374 1.07642e-13 0)
(4.37374 6.03238e-14 0)
(4.37374 -1.34023e-14 0)
(4.37374 -1.15513e-13 0)
(4.37374 -1.47435e-13 0)
(4.37374 -1.43815e-13 0)
(4.37374 -1.30943e-13 0)
(4.37374 -1.46152e-13 0)
(4.37374 -1.50496e-13 0)
(4.37374 -1.78131e-13 0)
(4.37374 -1.7326e-13 0)
(4.37374 -1.35743e-13 0)
(4.37374 -1.61791e-13 0)
(4.37374 7.90803e-15 0)
(4.37374 5.40427e-15 0)
(4.37374 7.37794e-15 0)
(4.37374 -2.54377e-15 0)
(4.37374 -2.64512e-14 0)
(4.37374 -6.29909e-14 0)
(4.37374 -5.6003e-14 0)
(4.37374 -6.86619e-14 0)
(4.37374 -8.4798e-14 0)
(4.37374 -1.04731e-13 0)
(4.37374 -9.62266e-14 0)
(4.37374 -5.09255e-14 0)
(4.37374 -2.76381e-15 0)
(4.37374 -1.1432e-14 0)
(4.37374 4.58079e-15 0)
(4.37374 -2.37208e-14 0)
(4.37374 -1.02038e-13 0)
(4.37374 -1.16844e-13 0)
(4.37374 -6.33976e-14 0)
(4.37374 -9.23793e-14 0)
(4.37374 -1.48202e-13 0)
(4.37374 -2.32407e-13 0)
(4.37374 -1.09726e-13 0)
(4.37374 -4.37609e-14 0)
(4.37374 -3.83566e-14 0)
(4.37374 -2.30973e-14 0)
(4.37374 5.91769e-15 0)
(4.37374 4.88651e-14 0)
(4.37374 4.56846e-14 0)
(4.37374 2.86249e-14 0)
(4.37374 -5.818e-14 0)
(4.37374 -1.45302e-13 0)
(4.37374 -1.42331e-13 0)
(4.37374 -1.78864e-14 0)
(4.37374 8.03072e-14 0)
(4.37374 8.71384e-14 0)
(4.37374 1.15007e-13 0)
(4.37374 1.29009e-13 0)
(4.37374 8.81919e-14 0)
(4.37374 -7.77996e-15 0)
(4.37374 -1.58094e-14 0)
(4.37374 -2.89017e-14 0)
(4.37374 -2.40675e-14 0)
(4.37374 3.31924e-14 0)
(4.37374 6.86719e-14 0)
(4.37374 5.31225e-14 0)
(4.37374 4.26874e-14 0)
(4.37374 -9.2916e-15 0)
(4.37374 -3.25523e-14 0)
(4.37374 -1.78964e-14 0)
(4.37374 -1.84865e-14 0)
(4.37374 -2.8675e-14 0)
(4.37374 -1.64795e-14 0)
(4.37374 -4.34742e-15 0)
(4.37374 2.08936e-14 0)
(4.37374 1.08385e-14 0)
(4.37374 1.97467e-14 0)
(4.37374 5.5913e-14 0)
(4.37374 6.61781e-14 0)
(4.37374 4.80383e-14 0)
(4.37374 -4.39409e-15 0)
(4.37374 -3.24923e-14 0)
(4.37374 -5.98003e-14 0)
(4.37374 4.51011e-14 0)
(4.37374 1.02558e-13 0)
(4.37374 9.37662e-14 0)
(4.37374 9.40162e-15 0)
(4.37374 -5.29058e-14 0)
(4.37374 -3.00419e-14 0)
(4.37374 -4.9952e-14 0)
(4.37374 -4.38809e-14 0)
(4.37374 -1.20648e-13 0)
(4.37374 -9.42263e-14 0)
(4.37374 -3.55961e-14 0)
(4.37374 -1.96634e-14 0)
(4.37374 -1.01418e-14 0)
(4.37374 6.3601e-14 0)
(4.37374 1.08162e-13 0)
(4.37374 1.32763e-13 0)
(4.37374 3.63469e-14 0)
(4.37374 2.64412e-14 0)
(4.37374 4.11338e-14 0)
(4.37374 1.21254e-14 0)
(4.37374 -2.94384e-15 0)
(4.37374 -3.71397e-15 0)
(4.37374 1.07285e-14 0)
(4.37374 -1.16453e-14 0)
(4.37374 6.86785e-16 0)
(4.37374 -8.35144e-15 0)
(4.37374 -2.16371e-15 0)
(4.37374 6.44378e-14 0)
(4.37374 7.83802e-14 0)
(4.37374 9.76002e-14 0)
(4.37374 6.37143e-14 0)
(4.37374 -9.82503e-15 0)
(4.37374 1.31189e-14 0)
(4.37374 1.20084e-13 0)
(4.37374 1.61498e-13 0)
(4.37374 1.28289e-13 0)
(4.37374 1.24421e-13 0)
(4.37374 1.02104e-13 0)
(4.37374 5.82267e-14 0)
(4.37374 1.85165e-14 0)
(4.37374 4.81083e-14 0)
(4.37374 1.09929e-13 0)
(4.37374 6.49612e-14 0)
(4.37374 -4.27574e-14 0)
(4.37374 -7.715e-14 0)
(4.37374 -1.01484e-13 0)
(4.37374 -1.58631e-13 0)
(4.37374 -2.05129e-13 0)
(4.37374 -2.07706e-13 0)
(4.37374 -1.65425e-13 0)
(4.37374 -1.42908e-13 0)
(4.37374 -6.96054e-14 0)
(4.37374 -3.26156e-14 0)
(4.37374 4.71681e-14 0)
(4.37374 6.1924e-14 0)
(4.37374 4.00769e-14 0)
(4.37374 1.47414e-14 0)
(4.37374 1.43025e-14 0)
(4.37374 3.45393e-15 0)
(4.37374 3.03019e-14 0)
(4.37374 2.59278e-14 0)
(4.37374 -1.60928e-14 0)
(4.37374 -9.95905e-14 0)
(4.37374 -1.12626e-13 0)
(4.37374 -1.14503e-13 0)
(4.37374 -9.00856e-14 0)
(4.37374 -7.60631e-14 0)
(4.37374 -4.13371e-14 0)
(4.37374 8.22809e-15 0)
(4.37374 1.95434e-14 0)
(4.37374 -8.08806e-15 0)
(4.37374 5.00953e-14 0)
(4.37374 1.05058e-13 0)
(4.37374 1.5238e-13 0)
(4.37374 1.45959e-14 0)
(4.37374 -2.79115e-14 0)
(4.37374 5.14756e-15 0)
(4.37374 8.3131e-14 0)
(4.37374 8.17641e-14 0)
(4.37374 8.82752e-14 0)
(4.37374 3.16788e-14 0)
(4.37374 -4.73815e-14 0)
(4.37374 -4.6398e-14 0)
(4.37374 -2.22605e-14 0)
(4.37374 4.40109e-14 0)
(4.37374 -8.12707e-14 0)
(4.37374 -2.50967e-13 0)
(4.37374 -2.96331e-13 0)
(4.37374 -2.36734e-13 0)
(4.37374 -8.5018e-14 0)
(4.37374 -1.40558e-14 0)
(4.37374 3.97202e-14 0)
(4.37374 7.73567e-14 0)
(4.37374 1.152e-13 0)
(4.37374 1.49022e-13 0)
(4.37374 1.84315e-13 0)
(4.37374 1.99428e-13 0)
(4.37374 -2.13904e-14 0)
(4.37374 -1.39657e-14 0)
(4.37374 7.58798e-15 0)
(4.37374 -2.27273e-14 0)
(4.37374 -6.19874e-14 0)
(4.37374 -1.06438e-13 0)
(4.37374 -9.54465e-14 0)
(4.37374 -1.04721e-13 0)
(4.37374 -9.66234e-14 0)
(4.37374 -5.82201e-14 0)
(4.37374 -6.50946e-14 0)
(4.37374 -7.63432e-14 0)
(4.37374 -9.27193e-14 0)
(4.37374 -4.90451e-14 0)
(4.37374 4.71681e-14 0)
(4.37374 6.5478e-14 0)
(4.37374 -3.79399e-15 0)
(4.37374 -5.52795e-14 0)
(4.37374 3.05186e-14 0)
(4.37374 7.87269e-14 0)
(4.37374 9.80436e-14 0)
(4.37374 1.19257e-13 0)
(4.37374 1.68076e-13 0)
(4.37374 3.72231e-14 0)
(4.37374 -6.95687e-14 0)
(4.37374 -1.1448e-13 0)
(4.37374 -7.3416e-14 0)
(4.37374 -4.91185e-14 0)
(4.37374 -1.52426e-14 0)
(4.37374 -6.23108e-15 0)
(4.37374 -6.00437e-14 0)
(4.37374 -1.93667e-14 0)
(4.37374 -2.08703e-15 0)
(4.37374 2.75714e-14 0)
(4.37374 3.21722e-14 0)
(4.37374 7.64665e-14 0)
(4.37374 1.28069e-13 0)
(4.37374 1.91716e-13 0)
(4.37374 1.86499e-13 0)
(4.37374 1.17019e-13 0)
(4.37374 -3.34058e-15 0)
(4.37374 3.48727e-14 0)
(4.37374 2.04902e-14 0)
(4.37374 1.80264e-14 0)
(4.37374 2.9085e-14 0)
(4.37374 5.9627e-14 0)
(4.37374 6.52246e-14 0)
(4.37374 9.14258e-14 0)
(4.37374 6.71749e-14 0)
(4.37374 5.95536e-14 0)
(4.37374 4.51811e-14 0)
(4.37374 3.99069e-15 0)
(4.37374 1.31156e-14 0)
(4.37374 6.20307e-14 0)
(4.37374 6.9452e-14 0)
(4.37374 -3.04686e-14 0)
(4.37374 -2.8855e-14 0)
(4.37374 4.75882e-14 0)
(4.37374 8.21308e-14 0)
(4.37374 7.13557e-14 0)
(4.37374 1.04115e-13 0)
(4.37374 1.35027e-13 0)
(4.37374 7.95537e-14 0)
(4.37374 8.92554e-14 0)
(4.37374 5.94803e-14 0)
(4.37374 -1.42158e-14 0)
(4.37374 -6.77617e-14 0)
(4.37374 -8.94721e-14 0)
(4.37374 -1.15563e-13 0)
(4.37374 -8.56248e-14 0)
(4.37374 6.55113e-15 0)
(4.37374 9.54565e-14 0)
(4.37374 8.44579e-14 0)
(4.37374 6.47512e-14 0)
(4.37374 3.2589e-14 0)
(4.37374 6.63081e-14 0)
(4.37374 5.62464e-14 0)
(4.37374 5.75633e-14 0)
(4.37374 -2.42809e-14 0)
(4.37374 1.09006e-13 0)
(4.37374 -8.79819e-15 0)
(4.37374 -4.2224e-14 0)
(4.37374 -4.02069e-14 0)
(4.37374 -1.18687e-14 0)
(4.37374 5.92236e-14 0)
(4.37374 1.43365e-13 0)
(4.37374 1.45809e-13 0)
(4.37374 1.10252e-13 0)
(4.37374 7.55864e-14 0)
(4.37374 7.79535e-14 0)
(4.37374 4.85384e-14 0)
(4.37374 5.54396e-14 0)
(4.37374 4.52011e-14 0)
(4.37374 3.64696e-14 0)
(4.37374 3.16788e-14 0)
(4.37374 5.17923e-14 0)
(4.37374 1.01624e-13 0)
(4.37374 8.87753e-14 0)
(4.37374 6.03471e-14 0)
(4.37374 4.91018e-14 0)
(4.37374 3.68997e-14 0)
(4.37374 -1.40424e-14 0)
(4.37374 -7.51796e-15 0)
(4.37374 7.61131e-15 0)
(4.37374 1.26055e-14 0)
(4.37374 5.47128e-14 0)
(4.37374 1.25598e-13 0)
(4.37374 8.64383e-14 0)
(4.37374 5.2009e-14 0)
(4.37374 5.3766e-14 0)
(4.37374 1.00907e-13 0)
(4.37374 1.09156e-13 0)
(4.37374 4.98919e-14 0)
(4.37374 3.32024e-14 0)
(4.37374 4.69381e-14 0)
(4.37374 6.7345e-16 0)
(4.37374 -4.47011e-14 0)
(4.37374 -3.21922e-14 0)
(4.37374 1.60151e-13 0)
(4.37374 3.42897e-13 0)
(4.37374 3.76065e-15 0)
(4.37374 -3.47993e-14 0)
(4.37374 -3.60296e-14 0)
(4.37374 -2.38408e-14 0)
(4.37374 -1.28789e-14 0)
(4.37374 9.22826e-15 0)
(4.37374 6.5658e-14 0)
(4.37374 2.46909e-14 0)
(4.37374 7.89003e-14 0)
(4.37374 1.00434e-13 0)
(4.37374 1.17637e-13 0)
(4.37374 1.04861e-13 0)
(4.37374 2.66113e-14 0)
(4.37374 -1.62628e-14 0)
(4.37374 -5.32359e-14 0)
(4.37374 9.22359e-14 0)
(4.37374 1.78457e-13 0)
(4.37374 1.93457e-13 0)
(4.37374 1.56847e-13 0)
(4.37374 5.01353e-14 0)
(4.37374 -4.20673e-14 0)
(4.37374 -5.12889e-14 0)
(4.37374 -8.33411e-14 0)
(4.37374 -1.04861e-13 0)
(4.37374 -9.67434e-14 0)
(4.37374 -3.61562e-14 0)
(4.37374 1.70663e-14 0)
(4.37374 9.33361e-14 0)
(4.37374 2.34747e-13 0)
(4.37374 1.89216e-13 0)
(4.37374 1.753e-13 0)
(4.37374 1.21658e-13 0)
(4.37374 3.20855e-14 0)
(4.37374 2.1317e-14 0)
(4.37374 1.19321e-14 0)
(4.37374 -3.80932e-14 0)
(4.37374 4.01369e-14 0)
(4.37374 7.56231e-14 0)
(4.37374 2.7208e-13 0)
(4.37374 2.76486e-13 0)
(4.37374 6.03104e-15 0)
(4.37374 3.63596e-14 0)
(4.37374 2.5031e-14 0)
(4.37374 2.36608e-14 0)
(4.37374 2.54877e-14 0)
(4.37374 1.69996e-14 0)
(4.37374 1.06318e-14 0)
(4.37374 -5.96436e-15 0)
(4.37374 -1.1642e-14 0)
(4.37374 -7.93804e-15 0)
(4.37374 9.44496e-15 0)
(4.37374 -9.61166e-15 0)
(4.37374 2.33374e-14 0)
(4.37374 7.24625e-14 0)
(4.37374 6.5898e-14 0)
(4.37374 6.08538e-14 0)
(4.37374 1.3789e-14 0)
(4.37374 1.72363e-14 0)
(4.37374 2.46042e-14 0)
(4.37374 2.97518e-14 0)
(4.37374 -2.78982e-14 0)
(4.37374 -8.83153e-14 0)
(4.37374 -1.69509e-13 0)
(4.37374 -2.16457e-13 0)
(4.37374 -2.20261e-13 0)
(4.37374 -1.20274e-13 0)
(4.37374 -2.21605e-14 0)
(4.37374 -2.47676e-14 0)
(4.37374 2.4941e-14 0)
(4.37374 7.42895e-14 0)
(4.37374 7.85569e-14 0)
(4.37374 6.89352e-14 0)
(4.37374 5.27858e-14 0)
(4.37374 9.33795e-14 0)
(4.37374 1.44235e-13 0)
(4.37374 1.30833e-13 0)
(4.37374 1.68862e-13 0)
(4.37374 1.1427e-13 0)
(4.37374 5.82867e-14 0)
(4.37374 5.26512e-15 0)
(4.37374 1.79698e-15 0)
(4.37374 -4.59079e-15 0)
(4.37374 -1.80565e-14 0)
(4.37374 -3.30157e-14 0)
(4.37374 -1.40291e-14 0)
(4.37374 1.13353e-14 0)
(4.37374 2.77981e-14 0)
(4.37374 4.75015e-14 0)
(4.37374 1.51793e-14 0)
(4.37374 -1.949e-14 0)
(4.37374 -1.88699e-15 0)
(4.37374 4.36142e-14 0)
(4.37374 6.85818e-14 0)
(4.37374 1.19681e-13 0)
(4.37374 1.39491e-13 0)
(4.37374 9.36295e-14 0)
(4.37374 -1.73363e-15 0)
(4.37374 -8.87453e-14 0)
(4.37374 -7.69833e-14 0)
(4.37374 -5.84501e-14 0)
(4.37374 -4.36675e-14 0)
(4.37374 -1.02841e-13 0)
(4.37374 -9.61366e-14 0)
(4.37374 -8.21475e-14 0)
(4.37374 -7.67533e-14 0)
(4.37374 -5.0452e-14 0)
(4.37374 8.16808e-16 0)
(4.37374 1.67996e-14 0)
(4.37374 6.9622e-14 0)
(4.37374 8.73417e-14 0)
(4.37374 6.06738e-14 0)
(4.37374 6.52079e-14 0)
(4.37374 1.27869e-13 0)
(4.37374 1.90493e-13 0)
(4.37374 1.20401e-13 0)
(4.37374 9.04256e-14 0)
(4.37374 7.65399e-14 0)
(4.37374 8.28576e-14 0)
(4.37374 -3.91701e-14 0)
(4.37374 -7.9629e-14 0)
(4.37374 -3.70731e-15 0)
(4.37374 -2.15571e-14 0)
(4.37374 -8.51147e-15 0)
(4.37374 -1.12853e-14 0)
(4.37374 -4.01369e-14 0)
(4.37374 -6.53413e-14 0)
(4.37374 -4.6208e-14 0)
(4.37374 1.31689e-14 0)
(4.37374 5.82034e-14 0)
(4.37374 7.18891e-14 0)
(4.37374 7.25725e-14 0)
(4.37374 2.88617e-14 0)
(4.37374 1.13753e-14 0)
(4.37374 -2.69513e-14 0)
(4.37374 -1.85999e-14 0)
(4.37374 -4.36009e-14 0)
(4.37374 -2.69313e-14 0)
(4.37374 -3.79065e-15 0)
(4.37374 -8.26709e-14 0)
(4.37374 -1.46962e-13 0)
(4.37374 -7.62265e-14 0)
(4.37374 -1.5446e-14 0)
(4.37374 3.41159e-14 0)
(4.37374 5.69665e-14 0)
(4.37374 4.39109e-14 0)
(4.37374 -4.11604e-14 0)
(4.37374 -5.49128e-14 0)
(4.37374 5.55829e-14 0)
(4.37374 2.09219e-13 0)
(4.37374 1.77171e-13 0)
(4.37374 1.23828e-13 0)
(4.37374 1.00434e-13 0)
(4.37374 1.97577e-13 0)
(4.37374 1.20257e-13 0)
(4.37374 1.02014e-13 0)
(4.37374 1.10439e-13 0)
(4.37374 1.20321e-13 0)
(4.37374 1.31396e-13 0)
(4.37374 6.35376e-14 0)
(4.37374 4.41486e-14 0)
(4.37374 -6.63448e-15 0)
(4.37374 1.07385e-14 0)
(4.37374 1.27889e-14 0)
(4.37374 2.18471e-14 0)
(4.37374 -1.66129e-14 0)
(4.37374 -8.21709e-14 0)
(4.37374 -1.41174e-13 0)
(4.37374 -1.3733e-13 0)
(4.37374 -9.59932e-14 0)
(4.37374 -7.95137e-15 0)
(4.37374 1.11686e-15 0)
(4.37374 -4.06904e-14 0)
(4.37374 -1.41508e-13 0)
(4.37374 -1.44272e-13 0)
(4.37374 -1.34513e-13 0)
(4.37374 -1.26102e-13 0)
(4.37374 -5.55196e-14 0)
(4.37374 -4.62647e-14 0)
(4.37374 -7.72e-14 0)
(4.37374 -3.15188e-14 0)
(4.37374 -3.78665e-14 0)
(4.37374 -2.62212e-14 0)
(4.37374 -2.7178e-14 0)
(4.37374 1.40158e-14 0)
(4.37374 9.79036e-14 0)
(4.37374 9.60466e-14 0)
(4.37374 9.99273e-14 0)
(4.37374 1.40228e-13 0)
(4.37374 1.66482e-13 0)
(4.37374 1.49509e-13 0)
(4.37374 1.10652e-13 0)
(4.37374 8.63549e-14 0)
(4.37374 6.88952e-14 0)
(4.37374 4.81783e-14 0)
(4.37374 7.24825e-14 0)
(4.37374 1.5609e-13 0)
(4.37374 1.51073e-13 0)
(4.37374 1.21094e-13 0)
(4.37374 8.64783e-14 0)
(4.37374 4.5266e-14 0)
(4.37374 -2.84382e-15 0)
(4.37374 8.92487e-15 0)
(4.37374 4.64113e-14 0)
(4.37374 5.78833e-14 0)
(4.37374 4.15005e-14 0)
(4.37374 1.5706e-14 0)
(4.37374 -1.22721e-14 0)
(4.37374 -2.85883e-14 0)
(4.37374 -2.22905e-14 0)
(4.37374 -1.06158e-13 0)
(4.37374 -1.5655e-13 0)
(4.37374 -1.48982e-13 0)
(4.37374 -1.19614e-13 0)
(4.37374 -1.51136e-13 0)
(4.37374 -1.82291e-13 0)
(4.37374 -1.74707e-13 0)
(4.37374 -2.01812e-13 0)
(4.37374 -1.59554e-13 0)
(4.37374 -1.09762e-13 0)
(4.37374 -2.27839e-14 0)
(4.37374 6.36177e-14 0)
(4.37374 8.58548e-14 0)
(4.37374 1.23841e-13 0)
(4.37374 1.22718e-13 0)
(4.37374 1.1698e-13 0)
(4.37374 1.27282e-13 0)
(4.37374 1.34567e-13 0)
(4.37374 1.51069e-13 0)
(4.37374 7.71467e-14 0)
(4.37374 5.46294e-14 0)
(4.37374 6.55046e-14 0)
(4.37374 6.91553e-14 0)
(4.37374 6.64781e-14 0)
(4.37374 1.00731e-13 0)
(4.37374 1.10506e-13 0)
(4.37374 1.06085e-13 0)
(4.37374 9.64833e-14 0)
(4.37374 1.20637e-13 0)
(4.37374 8.2851e-14 0)
(4.37374 6.55891e-15 0)
(4.37374 1.48192e-14 0)
(4.37374 -1.75964e-14 0)
(4.37374 7.42795e-15 0)
(4.37374 4.01903e-14 0)
(4.37374 4.63547e-14 0)
(4.37374 8.65016e-14 0)
(4.37374 1.13313e-13 0)
(4.37374 1.04918e-13 0)
(4.37374 5.06587e-14 0)
(4.37374 -4.99786e-14 0)
(4.37374 -1.06588e-13 0)
(4.37374 -9.60999e-14 0)
(4.37374 1.66095e-14 0)
(4.37374 3.75832e-14 0)
(4.37374 -2.07869e-14 0)
(4.37374 -8.95488e-14 0)
(4.37374 -1.01978e-13 0)
(4.37374 -7.49496e-14 0)
(4.37374 9.11691e-14 0)
(4.37374 1.28876e-13 0)
(4.37374 1.70346e-13 0)
(4.37374 1.45078e-13 0)
(4.37374 1.14116e-13 0)
(4.37374 1.1494e-13 0)
(4.37374 4.00669e-14 0)
(4.37374 4.56079e-15 0)
(4.37374 9.09157e-15 0)
(4.37374 1.24655e-14 0)
(4.37374 1.00751e-14 0)
(4.37374 5.19956e-14 0)
(4.37374 9.03823e-14 0)
(4.37374 1.55794e-13 0)
(4.37374 1.72203e-13 0)
(4.37374 1.40518e-13 0)
(4.37374 1.15153e-13 0)
(4.37374 1.04131e-13 0)
(4.37374 4.02136e-14 0)
(4.37374 1.79031e-15 0)
(4.37374 -5.16089e-15 0)
(4.37374 -2.76106e-14 0)
(4.37374 2.53444e-14 0)
(4.37374 -1.96367e-15 0)
(4.37374 -6.35643e-14 0)
(4.37374 -9.40329e-14 0)
(4.37374 -6.22508e-14 0)
(4.37374 -2.57111e-14 0)
(4.37374 -1.19154e-14 0)
(4.37374 -3.73565e-14 0)
(4.37374 -5.49695e-14 0)
(4.37374 -2.07036e-14 0)
(4.37374 9.13258e-14 0)
(4.37374 1.01164e-13 0)
(4.37374 8.82886e-14 0)
(4.37374 1.28002e-13 0)
(4.37374 1.51389e-13 0)
(4.37374 1.21721e-13 0)
(4.37374 6.46978e-14 0)
(4.37374 3.96468e-14 0)
(4.37374 5.42327e-14 0)
(4.37374 1.54117e-13 0)
(4.37374 1.49132e-13 0)
(4.37374 8.62882e-14 0)
(4.37374 3.93235e-14 0)
(4.37374 2.62312e-14 0)
(4.37374 -3.6943e-14 0)
(4.37374 -1.15033e-13 0)
(4.37374 -1.25688e-13 0)
(4.37374 -9.05656e-14 0)
(4.37374 5.82234e-14 0)
(4.37374 1.19967e-13 0)
(4.37374 5.81067e-14 0)
(4.37374 6.81251e-14 0)
(4.37374 6.24708e-14 0)
(4.37374 5.63131e-14 0)
(4.37374 1.63295e-14 0)
(4.37374 -1.59227e-14 0)
(4.37374 -1.45442e-13 0)
(4.37374 -2.23682e-13 0)
(4.37374 -1.68409e-13 0)
(4.37374 -6.56337e-14 0)
(4.37374 -1.98734e-14 0)
(4.37374 4.97753e-15 0)
(4.37374 -1.48059e-14 0)
(4.37374 -2.73747e-14 0)
(4.37374 -1.3719e-14 0)
(4.37374 -5.25091e-14 0)
(4.37374 -7.62865e-14 0)
(4.37374 -1.02918e-13 0)
(4.37374 -8.0954e-14 0)
(4.37374 -8.60149e-15 0)
(4.37374 3.36458e-14 0)
(4.37374 5.29291e-14 0)
(4.37374 4.01636e-14 0)
(4.37374 1.22755e-14 0)
(4.37374 7.48796e-14 0)
(4.37374 8.14741e-14 0)
(4.37374 6.95954e-14 0)
(4.37374 -1.96834e-14 0)
(4.37374 -5.28658e-14 0)
(4.37374 -2.21472e-14 0)
(4.37374 1.7233e-14 0)
(4.37374 1.25688e-15 0)
(4.37374 -4.22806e-14 0)
(4.37374 -6.85585e-14 0)
(4.37374 -7.75767e-14 0)
(4.37374 -1.9353e-13 0)
(4.37374 -2.1137e-13 0)
(4.37374 -1.84512e-13 0)
(4.37374 -1.27315e-13 0)
(4.37374 -7.48529e-14 0)
(4.37374 1.40558e-14 0)
(4.37374 1.74797e-14 0)
(4.37374 -2.90183e-14 0)
(4.37374 -1.02754e-13 0)
(4.37374 -1.71163e-13 0)
(4.37374 -2.62412e-13 0)
(4.37374 -3.02602e-13 0)
(4.37374 -3.57215e-13 0)
(4.37374 -3.00075e-13 0)
(4.37374 -8.62794e-14 0)
(4.37374 -2.26906e-14 0)
(4.37374 2.32007e-14 0)
(4.37374 3.05853e-14 0)
(4.37374 4.14238e-14 0)
(4.37374 5.49628e-14 0)
(4.37374 2.14037e-14 0)
(4.37374 3.80132e-14 0)
(4.37374 2.45509e-14 0)
(4.37374 6.54113e-15 0)
(4.37374 -3.32391e-14 0)
(4.37374 -3.33491e-14 0)
(4.37374 2.00701e-15 0)
(4.37374 -2.24839e-14 0)
(4.37374 -5.58363e-14 0)
(4.37374 -5.93336e-14 0)
(4.37374 -2.64846e-14 0)
(4.37374 2.66213e-14 0)
(4.37374 3.80466e-14 0)
(4.37374 -1.72396e-14 0)
(4.37374 -4.89785e-14 0)
(4.37374 -6.63481e-14 0)
(4.37374 -4.75715e-14 0)
(4.37374 -1.22188e-14 0)
(4.37374 -3.07887e-14 0)
(4.37374 -4.86017e-14 0)
(4.37374 -7.07355e-14 0)
(4.37374 -1.79664e-13 0)
(4.37374 -1.88196e-13 0)
(4.37374 -2.22838e-13 0)
(4.37374 -1.82005e-13 0)
(4.37374 -5.45161e-14 0)
(4.37374 -3.0892e-14 0)
(4.37374 -5.93703e-14 0)
(4.37374 -1.01758e-13 0)
(4.37374 -1.49626e-13 0)
(4.37374 -2.97455e-13 0)
(4.37374 -3.76445e-13 0)
(4.37374 -4.82e-13 0)
(4.37374 -4.83784e-13 0)
(4.37374 -2.93989e-13 0)
(4.37374 6.87785e-15 0)
(4.37374 2.5041e-14 0)
(4.37374 3.876e-14 0)
(4.37374 4.12905e-14 0)
(4.37374 1.67896e-14 0)
(4.37374 9.30494e-15 0)
(4.37374 3.12154e-14 0)
(4.37374 6.25808e-14 0)
(4.37374 5.92336e-14 0)
(4.37374 3.43726e-15 0)
(4.37374 -2.42875e-14 0)
(4.37374 -2.79115e-14 0)
(4.37374 8.1114e-15 0)
(4.37374 2.65446e-14 0)
(4.37374 -1.80431e-14 0)
(4.37374 3.17388e-15 0)
(4.37374 7.16857e-14 0)
(4.37374 1.1768e-13 0)
(4.37374 1.12113e-13 0)
(4.37374 7.54464e-15 0)
(4.37374 -1.52626e-14 0)
(4.37374 1.25155e-14 0)
(4.37374 8.20875e-14 0)
(4.37374 1.14486e-14 0)
(4.37374 -6.87485e-14 0)
(4.37374 -5.48428e-14 0)
(4.37374 -2.65246e-14 0)
(4.37374 -6.21407e-14 0)
(4.37374 -8.77352e-14 0)
(4.37374 -1.40311e-13 0)
(4.37374 -1.54533e-13 0)
(4.37374 -5.02954e-14 0)
(4.37374 -5.52629e-14 0)
(4.37374 -1.09239e-13 0)
(4.37374 -2.80148e-13 0)
(4.37374 -3.12011e-13 0)
(4.37374 -3.12377e-13 0)
(4.37374 -3.13061e-13 0)
(4.37374 -3.03109e-13 0)
(4.37374 -2.411e-13 0)
(4.37374 8.52814e-15 0)
(4.37374 -1.46192e-14 0)
(4.37374 4.52411e-15 0)
(4.37374 4.70415e-15 0)
(4.37374 -1.04551e-14 0)
(4.37374 -2.18038e-15 0)
(4.37374 -3.21889e-14 0)
(4.37374 -3.13821e-14 0)
(4.37374 -2.04702e-15 0)
(4.37374 7.39794e-15 0)
(4.37374 -1.87632e-14 0)
(4.37374 -2.82549e-14 0)
(4.37374 -7.28793e-15 0)
(4.37374 8.91154e-15 0)
(4.37374 1.89366e-15 0)
(4.37374 5.99537e-14 0)
(4.37374 7.08922e-14 0)
(4.37374 8.97155e-14 0)
(4.37374 6.13873e-14 0)
(4.37374 5.09421e-14 0)
(4.37374 5.15189e-14 0)
(4.37374 5.4036e-14 0)
(4.37374 2.43742e-14 0)
(4.37374 -4.96752e-15 0)
(4.37374 3.21889e-14 0)
(4.37374 5.1879e-14 0)
(4.37374 5.15356e-14 0)
(4.37374 2.06202e-14 0)
(4.37374 -4.58579e-14 0)
(4.37374 -1.28275e-13 0)
(4.37374 -1.38107e-13 0)
(4.37374 -1.14506e-13 0)
(4.37374 -3.69731e-14 0)
(4.37374 -1.95167e-13 0)
(4.37374 -3.6938e-13 0)
(4.37374 -3.96652e-13 0)
(4.37374 -3.02146e-13 0)
(4.37374 -1.25452e-13 0)
(4.37374 -1.87706e-13 0)
(4.37374 -1.54461e-13 0)
(4.37374 3.30057e-16 0)
(4.37374 -5.03087e-14 0)
(4.37374 -6.84418e-14 0)
(4.37374 -7.70333e-14 0)
(4.37374 -7.45295e-14 0)
(4.37374 -4.98519e-14 0)
(4.37374 -1.11119e-14 0)
(4.37374 -1.7103e-14 0)
(4.37374 -7.82135e-15 0)
(4.37374 -5.61764e-15 0)
(4.37374 -1.66729e-14 0)
(4.37374 -1.07852e-14 0)
(4.37374 7.96804e-16 0)
(4.37374 -7.28459e-15 0)
(4.37374 2.50377e-14 0)
(4.37374 6.61948e-14 0)
(4.37374 2.28506e-14 0)
(4.37374 -3.89567e-14 0)
(4.37374 -5.90169e-14 0)
(4.37374 -8.48313e-14 0)
(4.37374 -7.09156e-14 0)
(4.37374 -4.68414e-14 0)
(4.37374 -2.35807e-14 0)
(4.37374 -2.89517e-14 0)
(4.37374 2.42075e-14 0)
(4.37374 -4.03336e-14 0)
(4.37374 -5.93936e-14 0)
(4.37374 -1.50079e-13 0)
(4.37374 -2.03375e-13 0)
(4.37374 -2.14627e-13 0)
(4.37374 -2.05789e-13 0)
(4.37374 -2.3199e-13 0)
(4.37374 -1.60128e-13 0)
(4.37374 -2.37881e-13 0)
(4.37374 -2.72204e-13 0)
(4.37374 -2.85123e-13 0)
(4.37374 -2.24305e-13 0)
(4.37374 -1.37497e-13 0)
(4.37374 -1.43902e-13 0)
(4.37374 -1.39631e-13 0)
(4.37374 4.10071e-16 0)
(4.37374 5.68765e-15 0)
(4.37374 -2.23839e-14 0)
(4.37374 -6.67615e-14 0)
(4.37374 -9.31528e-14 0)
(4.37374 -5.74899e-14 0)
(4.37374 3.47593e-14 0)
(4.37374 1.35437e-13 0)
(4.37374 1.34197e-13 0)
(4.37374 6.95187e-14 0)
(4.37374 5.811e-14 0)
(4.37374 1.5686e-14 0)
(4.37374 3.95735e-15 0)
(4.37374 4.52178e-14 0)
(4.37374 7.16624e-14 0)
(4.37374 1.21188e-14 0)
(4.37374 -6.92653e-14 0)
(4.37374 -1.65028e-13 0)
(4.37374 -1.48059e-13 0)
(4.37374 -1.49406e-13 0)
(4.37374 -1.32413e-13 0)
(4.37374 -9.676e-14 0)
(4.37374 -7.29126e-14 0)
(4.37374 -6.03271e-14 0)
(4.37374 -1.57044e-13 0)
(4.37374 -1.38651e-13 0)
(4.37374 -1.21221e-13 0)
(4.37374 -1.07529e-13 0)
(4.37374 -1.24905e-13 0)
(4.37374 -1.04951e-13 0)
(4.37374 -1.45515e-13 0)
(4.37374 -1.69336e-13 0)
(4.37374 -1.96274e-13 0)
(4.37374 -1.84715e-13 0)
(4.37374 -1.83762e-13 0)
(4.37374 -1.13296e-13 0)
(4.37374 -3.66663e-14 0)
(4.37374 -1.03691e-13 0)
(4.37374 -9.32094e-14 0)
(4.37374 -9.64024e-14 0)
(4.37374 -7.33127e-15 0)
(4.37374 3.21022e-14 0)
(4.37374 3.98402e-14 0)
(4.37374 2.82816e-14 0)
(4.37374 9.26827e-15 0)
(4.37374 7.07789e-15 0)
(4.37374 2.27539e-14 0)
(4.37374 1.25455e-14 0)
(4.37374 -1.84765e-14 0)
(4.37374 -2.76481e-14 0)
(4.37374 -4.19806e-14 0)
(4.37374 -5.49762e-14 0)
(4.37374 -6.24141e-14 0)
(4.37374 -4.02703e-14 0)
(4.37374 -4.33975e-14 0)
(4.37374 -7.05122e-14 0)
(4.37374 -4.96019e-14 0)
(4.37374 -4.72948e-14 0)
(4.37374 -8.38511e-14 0)
(4.37374 -1.18951e-13 0)
(4.37374 -9.73201e-14 0)
(4.37374 -9.34361e-14 0)
(4.37374 -1.1443e-13 0)
(4.37374 -1.08552e-13 0)
(4.37374 -1.69256e-13 0)
(4.37374 -1.61748e-13 0)
(4.37374 -9.36662e-14 0)
(4.37374 -6.70282e-14 0)
(4.37374 -5.61364e-14 0)
(4.37374 -8.3211e-14 0)
(4.37374 -9.60699e-14 0)