/*--------------------------------*- C++ -*----------------------------------*\
| =========                 |                                                 |
| \\      /  F ield         | OpenFOAM: The Open Source CFD Toolbox           |
|  \\    /   O peration     | Version:  2206                                  |
|   \\  /    A nd           | Website:  www.openfoam.com                      |
|    \\/     M anipulation  |                                                 |
\*---------------------------------------------------------------------------*/
FoamFile
{
    version     2.0;
    format      ascii;
    arch        "LSB;label=32;scalar=64";
    class       volScalarField;
    location    "0.06";
    object      p;
}
// * * * * * * * * * * * * * * * * * * * * * * * * * * * * * * * * * * * * * //

dimensions      [1 -1 -2 0 0 0 0];

internalField   nonuniform List<scalar> 
4800
(
1
1
1
1
1
1
1
1
1
1
1
1
1
1
1
1
1
1
1
1
1
1
1
1
1
1
1
1
1
1
1
1
1
1
1
1
1
1
1
1
1
1
1
1
1
1
1
1
1
1
1
1
1
1
1
1
1
1
1
1
1
1
1
1
1
1
1
1
1
1
1
1
1
1
1
1
1
1
1
1
1
1
1
1
1
1
1
1
1
1
1
1
1
1
1
1
1
1
1
1
1
1
1
1
1
1
1
1
1
1
1
1
1
1
1
1
1
1
1
1
1
1
1
1
1
1
1
1
1
1
1
1
1
1
1
1
1
1
1
1
1
1
1
1
1
1
1
1
1
1
1
1
1
1
1
1
1
1
1
1
1
1
1
1
1
1
1
1
1
1
1
1
1
1
1
1
1
1
1
1
1
1
1
1
1
1
1
1
1
1
1
1
1
1
1
1
1
1
1
1
1
1
1
1
1
1
1
1
1
1
1
1
1
1
1
1
1
1
1
1
1
1
1
1
1
1
1
1
1
1
1
1
1
1
1
1
1
1
1
1
1
1
1
1
1
1
1
1
1
1
1
1
1
1
1
1
1
1
1
1
1
1
1
1
1
1
1
1
1
1
1
1
1
1
1
1
1
1
1
1
1
1
1
1
1
1
1
1
1
1
1
1
1
1
1
1
1
1
1
1
1
1
1
1
1
1
1
1
1
1
1
1
1
1
1
1
1
1
1
1
1
1
1
1
1
1
1
1
1
1
1
1
1
1
1
1
1
1
1
1
1
1
1
1
1
1
1
1
1
1
1
1
1
1
1
1
1
1
1
1
1
1
1
1
1
1
1
1
1
1
1
1
1
1
1
1
1
1
1
1
1
1
1
1
1
1
1
1
1
1
1
1
1
1
1
1
1
1
1
1
1
1
1
1
1
1
1
1
1
1
1
1
1
1
1
1
1
1
1
1
1
1
1
1
1
1
1
1
1
1
1
1
1
1
1
1
1
1
1
1
1
1
1
1
1
1
1
1
1
1
1
1
1
1
1
1
1
1
1
1
1
1
1
1
1
1
1
1
1
1
1
1
1
1
1
1
1
1
1
1
1
1
1
1
1
1
1
1
1
1
1
1
1
1
1
1
1
1
1
1
1
1
1
1
1
1
1
1
1
1
1
1
1
1
1
1
1
1
1
1
1
1
1
1
1
1
1
1
1
1
1
1
1
1
1
1
1
1
1
1
1
1
1
1
1
1
1
1
1
1
1
1
1
1
1
1
1
1
1
1
1
1
1
1
1
1
1
1
1
1
1
1
1
1
1
1
1
1
1
1
1
1
1
1
1
1
1
1
1
1
1
1
1
1
1
1
1
1
1
1
1
1
1
1
1
1
1
1
1
1
1
1
1
1
1
1
1
1
1
1
1
1
1
1
1
1
1
1
1
1
1
1
1
1
1
1
1
1
1
1
1
1
1
1
1
1
1
1
1
1
1
1
1
1
1
1
1
1
1
1
1
1
1
1
1
1
1
1
1
1
1
1
1
1
1
1
1
1
1
1
1
1
1
1
1
1
1
1
1
1
1
1
1
1
1
1
1
1
1
1
1
1
1
1
1
1
1
1
1
1
1
1
1
1
1
1
1
1
1
1
1
1
1
1
1
1
1
1
1
1
1
1
1
1
1
1
1
1
1
1
1
1
1
1
1
1
1
1
1
1
1
1
1
1
1
1
1
1
1
1
1
1
1
1
1
1
1
1
1
1
1
1
1
1
1
1
1
1
1
1
1
1
1
1
1
1
1
1
1
1
1
1
1
1
1
1
1
1
1
1
1
1
1
1
1
1
1
1
1
1
1
1
1
1
1
1
1
1
1
1
1
1
1
1
1
1
1
1
1
1
1
1
1
1
1
1
1
1
1
1
1
1
1
1
1
1
1
1
1
1
1
1
1
1
1
1
1
1
1
1
1
1
1
1
1
1
1
1
1
1
1
1
1
1
1
1
1
1
1
1
1
1
1
1
1
1
1
1
1
1
1
1
1
1
1
1
1
1
1
1
1
1
1
1
1
1
1
1
1
1
1
1
1
1
1
1
1
1
1
1
1
1
1
1
1
1
1
1
1
1
1
1
1
1
1
1
1
1
1
1
1
1
1
1
1
1
1
1
1
1
1
1
1
1
1
1
1
1
1
1
1
1
1
1
1
1
1
1
1
1
1
1
1
1
1
1
1
1
1
1
1
1
1
1
1
1
1
1
1
1
1
1
1
1
1
1
1
1
1
1
1
1
1
1
1
1
1
1
1
1
1
1
1
1
1
1
1
1
1
1
1
1
1
1
1
1
1
1
1
1
1
1
1
1
1
1
1
1
1
1
1
1
1
1
1
1
1
1
1
1
1
1
1
1
1
1
1
1
1
1
1
1
1
1
1
1
1
1
1
1
1
1
1
1
1
1
1
1
1
1
1
1
1
1
1
1
1
1
1
1
1
1
1
1
1
1
1
1
1
1
1
1
1
1
1
1
1
1
1
1
1
1
1
1
1
1
1
1
1
1
1
1
1
1
1
1
1
1
1
1
1
1
1
1
1
1
1
1
1
1
1
1
1
1
1
1
1
1
1
1
1
1
1
1
1
1
1
1
1
1
1
1
1
1
1
1
1
1
1
1
1
1
1
1
1
1
1
1
1
1
1
1
1
1
1
1
1
1
1
1
1
1
1
1
1
1
1
1
1
1
1
1
1
1
1
1
1
1
1
1
1
1
1
1
1
1
1
1
1
1
1
1
1
1
1
1
1
1
1
1
1
1
1
1
1
1
1
1
1
1
1
1
1
1
1
1
1
1
1
1
1
1
1
1
1
1
1
1
1
1
1
1
1
1
1
1
1
1
1
1
1
1
1
1
1
1
1
1
1
1
1
1
1
1
1
1
1
1
1
1
1
1
1
1
1
1
1
1
1
1
1
1
1
1
1
1
1
1
1
1
1
1
1
1
1
1
1
1
1
1
1
1
1
1
1
1
1
1
1
1
1
1
1
1
1
1
1
1
1
1
1
1
1
1
1
1
1
1
1
1
1
1
1
1
1
1
1
1
1
1
1
1
1
1
1
1
1
1
1
1
1
1
1
1
1
1
1
1
1
1
1
1
1
1
1
1
1
1
1
1
1
1
1
1
1
1
1
1
1
1
1
1
1
1
1
1
1
1
1
1
1
1
1
1
1
1
1
1
1
1
1
1
1
1
1
1
1
1
1
1
1
1
1
1
1
1
1
1
1
1
1
1
1
1
1
1
1
1
1
1
1
1
1
1
1
1
1
1
1
1
1
1
1
1
1
1
1
1
1
1
1
1
1
1
1
1
1
1
1
1
1
1
1
1
1
1
1
1
1
1
1
1
1
1
1
1
1
1
1
1
1
1
1
1
1
1
1
1
1
1
1
1
1
1
1
1
1
1
1
1
1
1
1
1
1
1
1
1
1
1
1
1
1
1
1
1
1
1
1
1
1
1
1
1
1
1
1
1
1
1
1
1
1
1
1
1
1
1
1
1
1
1
1
1
1
1
1
1
1
1
1
1
1
1
1
1
1
1
1
1
1
1
1
1
1
1
1
1
1
1
1
1
1
1
1
1
1
1
1
1
1.26468
1.68143
2.18786
2.77936
3.324
3.80726
4.41199
5.18035
5.42665
5.62607
6.0524
6.17789
6.0989
5.88052
5.60023
5.26507
4.88911
4.4312
4.17157
4.13669
4.10392
4.02806
4.01799
4.05128
4.12626
4.20842
4.26792
4.27067
4.25797
4.24727
4.25464
4.27635
4.30231
4.31908
4.32375
4.3301
4.34113
4.34562
4.34406
4.33542
4.32095
4.30769
4.29723
4.2892
4.28606
4.28804
4.29149
4.27943
4.24861
4.21013
4.17659
4.15203
4.13182
4.1118
4.09328
4.08387
4.08206
4.0812
4.08033
4.07914
4.07749
4.07411
4.07029
4.07057
4.07093
4.06653
4.06476
4.07996
4.0989
4.09494
4.0895
4.08926
4.09048
4.09088
4.09097
4.09437
4.09955
4.10437
4.10482
4.10758
0.999948
1.00053
1.00692
1.03828
1.15359
1.33118
1.49931
1.78603
2.26447
2.61524
3.09033
3.56121
3.85749
4.13226
4.33635
4.56362
4.66589
4.60029
4.53853
4.55551
4.5635
4.49503
4.35862
4.29087
4.26362
4.23453
4.21804
4.21453
4.21928
4.23044
4.2478
4.27371
4.28438
4.28186
4.278
4.28395
4.30283
4.31984
4.33268
4.33245
4.32899
4.33099
4.33314
4.3296
4.31091
4.28819
4.27193
4.24982
4.21395
4.1757
4.14741
4.12907
4.11688
4.10639
4.09415
4.08612
4.083
4.08145
4.08
4.07736
4.07169
4.06409
4.05742
4.05633
4.05831
4.05762
4.05758
4.0729
4.09078
4.08854
4.08507
4.08638
4.08875
4.08985
4.09064
4.09314
4.09616
4.09837
4.10027
4.10643
1
1
1
0.999996
1
1
0.999446
1.00028
1.02318
1.08472
1.20834
1.53279
1.95894
2.57433
3.39483
4.24556
4.67557
4.81546
4.9411
4.95966
4.92919
4.84373
4.66818
4.458
4.26722
4.20269
4.19732
4.20804
4.21985
4.23878
4.28166
4.30361
4.30155
4.28301
4.25859
4.2518
4.26209
4.27732
4.29624
4.32555
4.34511
4.35286
4.35453
4.35116
4.33261
4.30226
4.27253
4.24122
4.20211
4.15654
4.12885
4.11532
4.10844
4.10385
4.09649
4.08634
4.08291
4.08155
4.0804
4.07795
4.0728
4.06696
4.06444
4.06407
4.0654
4.06485
4.06383
4.07671
4.09337
4.09043
4.08445
4.0862
4.08978
4.09185
4.09396
4.09564
4.09691
4.09787
4.0988
4.1057
1
1
1
1
1
1
1
1
1
1
1
0.999258
1.0049
1.0489
1.2745
1.71801
2.48817
3.18749
3.84115
4.4342
4.49423
4.55764
4.48157
4.47454
4.46535
4.4331
4.41256
4.38175
4.34079
4.33834
4.32231
4.30772
4.26688
4.22863
4.2209
4.22803
4.25015
4.27273
4.28381
4.29999
4.32418
4.34039
4.34947
4.35178
4.3417
4.31466
4.28163
4.24653
4.20984
4.16378
4.1233
4.10447
4.09627
4.09245
4.08797
4.08216
4.07954
4.078
4.07793
4.07801
4.07524
4.0727
4.07046
4.06761
4.06807
4.06832
4.06779
4.07945
4.09634
4.09215
4.08359
4.08293
4.08754
4.09002
4.09207
4.09436
4.09676
4.09922
4.10073
4.10843
1
1
1
1
1
1
1
1
1
1
1
1
1
1
0.999603
1.00102
1.04144
1.24196
1.58053
2.25354
3.05388
3.77193
4.36412
4.51696
4.6838
4.67075
4.61185
4.55101
4.47105
4.37038
4.30056
4.29811
4.27779
4.24341
4.23457
4.2422
4.25796
4.27635
4.29162
4.28416
4.28317
4.29455
4.30588
4.31462
4.3174
4.30712
4.28409
4.25283
4.21425
4.16695
4.12895
4.11178
4.10124
4.09194
4.08564
4.08264
4.07968
4.07702
4.07688
4.0777
4.07688
4.07443
4.06873
4.06197
4.06152
4.0614
4.06514
4.08741
4.10023
4.09222
4.08046
4.08082
4.08804
4.09103
4.09197
4.09313
4.09517
4.09768
4.09928
4.10835
1
1
1
1
1
1
1
1
1
1
1
1
1
1
1
1
1
0.999803
1.00014
1.02832
1.21567
1.51484
2.15328
2.86539
3.69208
4.12244
4.22967
4.33513
4.27726
4.28863
4.34793
4.39115
4.38888
4.3466
4.32513
4.3234
4.31987
4.31303
4.29508
4.26247
4.2517
4.25707
4.27041
4.28508
4.29756
4.2969
4.28308
4.25556
4.21571
4.17334
4.14317
4.12566
4.11195
4.09723
4.08933
4.08481
4.07942
4.07409
4.07068
4.07121
4.07204
4.06798
4.06232
4.06313
4.06579
4.06678
4.07155
4.09277
4.0993
4.08884
4.07612
4.07736
4.08586
4.08951
4.09021
4.09118
4.09306
4.09497
4.0959
4.10599
1
1
1
1
1
1
1
1
1
1
1
1
1
1
1
1
1
1
1
1
0.99987
1.00015
1.0251
1.16493
1.46437
2.10697
2.79963
3.61734
4.05113
4.275
4.45226
4.45319
4.42745
4.39379
4.36793
4.34091
4.31961
4.32155
4.30786
4.28598
4.2602
4.24875
4.24954
4.25752
4.27024
4.27369
4.26394
4.23795
4.20006
4.16773
4.14834
4.13202
4.11274
4.09975
4.09175
4.08239
4.07336
4.06453
4.05756
4.05857
4.05957
4.05423
4.05221
4.05658
4.06016
4.06323
4.07285
4.09383
4.09372
4.08008
4.07196
4.07452
4.08226
4.08655
4.08759
4.08859
4.09006
4.0919
4.09386
4.10516
1
1
1
1
1
1
1
1
1
1
1
1
1
1
1
1
1
1
1
1
1
1
1
0.999846
1.00029
1.03218
1.15971
1.44188
2.11076
2.80604
3.6199
3.89069
4.06944
4.14367
4.14381
4.20511
4.33039
4.37842
4.38256
4.37387
4.34739
4.31272
4.28083
4.26724
4.2572
4.24574
4.2336
4.21612
4.18363
4.14589
4.12927
4.11834
4.11008
4.10375
4.08789
4.07031
4.05924
4.04929
4.04049
4.03835
4.04876
4.06395
4.07019
4.06923
4.06718
4.0668
4.0753
4.0907
4.08223
4.06408
4.06261
4.06717
4.0758
4.08199
4.08512
4.08728
4.08904
4.09096
4.09276
4.10396
1
1
1
1
1
1
1
1
1
1
1
1
1
1
1
1
1
1
1
1
1
1
1
0.999999
0.999998
1.00001
0.999892
1.00079
1.03638
1.15844
1.47244
2.11899
2.85492
3.55581
3.85477
4.14004
4.2953
4.35903
4.38093
4.38216
4.37329
4.33315
4.2923
4.27612
4.272
4.26524
4.24882
4.21466
4.15616
4.10625
4.09173
4.08626
4.08744
4.09203
4.09404
4.08956
4.08228
4.0735
4.06292
4.05343
4.05314
4.06008
4.0633
4.06085
4.05857
4.05972
4.07477
4.08317
4.07013
4.0652
4.0726
4.0763
4.08054
4.08586
4.08903
4.09186
4.09442
4.09674
4.09872
4.10962
1
1
1
1
1
1
1
1
1
1
1
1
1
1
1
1
1
1
1
1
1
1
1
1
1
1
0.999999
0.999997
1.00002
0.999937
1.00177
1.04724
1.17195
1.55859
2.25144
3.01988
3.55831
3.85036
4.0791
4.17942
4.24911
4.2889
4.3179
4.34566
4.36137
4.3519
4.31638
4.26526
4.1744
4.07097
4.0542
4.05121
4.0515
4.06819
4.09548
4.10469
4.10241
4.09239
4.07561
4.05886
4.04768
4.04743
4.04904
4.04873
4.05098
4.05693
4.07483
4.08113
4.07487
4.0688
4.07524
4.08103
4.08175
4.08584
4.08873
4.0909
4.09417
4.09799
4.10134
4.11224
1
1
1
1
1
1
1
1
1
1
1
1
1
1
1
1
1
1
1
1
1
1
1
1
1
1
1
1
1
0.999999
0.999994
1.00005
1.00001
1.00605
1.06531
1.23306
1.7
2.36535
3.13418
3.58115
3.92371
4.21748
4.2783
4.31864
4.34932
4.34792
4.32499
4.27683
4.19731
4.09707
4.06036
4.05372
4.04902
4.05399
4.07303
4.08282
4.0772
4.06632
4.05562
4.04734
4.04515
4.04629
4.04988
4.05377
4.05683
4.0632
4.07458
4.07707
4.07383
4.06731
4.07075
4.07821
4.07731
4.07948
4.08305
4.08555
4.08844
4.09312
4.09774
4.111
1
1
1
1
1
1
1
1
1
1
1
1
1
1
1
1
1
1
1
1
1
1
1
1
1
1
1
1
1
1
1
1
1
1
0.999986
1.00035
1.01353
1.07982
1.30601
1.9129
2.64216
3.43855
3.75367
3.96986
4.08849
4.18004
4.22723
4.25409
4.24468
4.19248
4.12322
4.08073
4.06229
4.04684
4.04497
4.04589
4.03928
4.03398
4.03546
4.04337
4.05051
4.05488
4.05843
4.06235
4.06504
4.06775
4.06849
4.06818
4.06695
4.06323
4.06677
4.07259
4.07255
4.07637
4.07999
4.08238
4.08405
4.08793
4.0948
4.11253
1
1
1
1
1
1
1
1
1
1
1
1
1
1
1
1
1
1
1
1
1
1
1
1
1
1
1
1
1
1
1
1
1
1
1
0.999998
1.00001
0.999985
1.00153
1.03307
1.16336
1.53145
2.24388
3.0632
3.5803
3.89227
4.07998
4.22372
4.22064
4.17045
4.09054
4.03606
4.02401
4.03085
4.0369
4.03194
4.02815
4.03263
4.04286
4.05788
4.05684
4.05014
4.0475
4.04897
4.05388
4.05801
4.05683
4.05688
4.05982
4.06474
4.07503
4.07951
4.07647
4.08087
4.08203
4.08147
4.08329
4.08712
4.09579
4.11849
1
1
1
1
1
1
1
1
1
1
1
1
1
1
1
1
1
1
1
1
1
1
1
1
1
1
1
1
1
1
1
1
1
1
1
1
1
0.999998
0.999999
0.999981
1.00036
1.00742
1.07925
1.30704
1.87144
2.67664
3.28294
3.75943
3.99092
4.0027
3.96506
3.94083
3.9659
4.03657
4.08235
4.07687
4.07119
4.05924
4.05178
4.05651
4.04764
4.02804
4.02075
4.02704
4.04272
4.0495
4.04906
4.05052
4.05301
4.0574
4.07083
4.07893
4.08031
4.083
4.08231
4.07818
4.07863
4.08203
4.09001
4.11757
1
1
1
1
1
1
1
1
1
1
1
1
1
1
1
1
1
1
1
1
1
1
1
1
1
1
1
1
1
1
1
1
1
1
1
1
1
1
1
0.999999
0.999999
0.99999
1.00005
1.00219
1.03032
1.17969
1.63784
2.28059
2.96422
3.55308
3.87024
3.88375
3.9272
4.01187
4.05605
4.04967
4.03955
4.02745
4.03115
4.03899
4.02489
4.00249
3.99803
4.00811
4.03315
4.06005
4.06952
4.06589
4.04878
4.04726
4.05681
4.07109
4.07762
4.08014
4.08225
4.08335
4.08012
4.0795
4.0836
4.11319
1
1
1
1
1
1
1
1
1
1
1
1
1
1
1
1
1
1
1
1
1
1
1
1
1
1
1
1
1
1
1
1
1
1
1
1
1
1
1
1
1
0.999999
0.999999
1
0.999988
1.00077
1.01441
1.09965
1.39326
1.9152
2.63864
3.15929
3.50004
3.71505
3.84421
3.91191
3.91501
3.91983
3.97723
4.02783
4.04489
4.03863
4.02829
4.02049
4.02951
4.05719
4.07128
4.06377
4.04057
4.0284
4.03611
4.05726
4.07298
4.07798
4.07934
4.08757
4.08712
4.08238
4.08316
4.1112
1
1
1
1
1
1
1
1
1
1
1
1
1
1
1
1
1
1
1
1
1
1
1
1
1
1
1
1
1
1
1
1
1
1
1
1
1
1
1
1
1
1
1
1
0.999998
0.999999
0.999988
1.00023
1.00512
1.04819
1.18889
1.57911
2.06724
2.58946
3.14454
3.59625
3.78641
3.90358
3.9609
4.03661
4.07481
4.07309
4.0527
3.98871
3.96752
3.99605
4.05189
4.05542
4.03665
4.01761
4.0199
4.03838
4.06284
4.07576
4.07574
4.07907
4.08615
4.08927
4.08904
4.11216
1
1
1
1
1
1
1
1
1
1
1
1
1
1
1
1
1
1
1
1
1
1
1
1
1
1
1
1
1
1
1
1
1
1
1
1
1
1
1
1
1
1
1
1
1
1
0.999999
0.999999
0.999996
1.00005
1.00108
1.01409
1.05898
1.24142
1.59427
2.09697
2.71174
3.31709
3.52721
3.68228
3.86365
4.00333
4.01239
3.9642
3.9218
3.94807
4.01889
4.06775
4.07206
4.05955
4.02849
4.02691
4.04708
4.06948
4.07523
4.07201
4.07913
4.08439
4.08357
4.11111
1
1
1
1
1
1
1
1
1
1
1
1
1
1
1
1
1
1
1
1
1
1
1
1
1
1
1
1
1
1
1
1
1
1
1
1
1
1
1
1
1
1
1
1
1
1
1
1
1
1
0.999998
1.00001
1.00008
1.00218
1.01518
1.08585
1.26625
1.63896
2.21
2.77239
3.18029
3.59665
3.94448
4.00678
3.98124
3.98388
4.01127
4.06227
4.07742
4.06854
4.02136
3.99185
4.00727
4.05501
4.0714
4.06819
4.06533
4.07067
4.07853
4.12352
1
1
1
1
1
1
1
1
1
1
1
1
1
1
1
1
1
1
1
1
1
1
1
1
1
1
1
1
1
1
1
1
1
1
1
1
1
1
1
1
1
1
1
1
1
1
1
1
1
1
1
1
1
1
0.999997
1.00026
1.00261
1.02039
1.09396
1.29976
1.77003
2.31721
2.85758
3.49428
3.80676
3.81913
3.83144
3.91146
4.02984
4.05297
4.03263
3.98701
3.98904
4.02724
4.0704
4.08524
4.07597
4.0676
4.07899
4.14186
1
1
1
1
1
1
1
1
1
1
1
1
1
1
1
1
1
1
1
1
1
1
1
1
1
1
1
1
1
1
1
1
1
1
1
1
1
1
1
1
1
1
1
1
1
1
1
1
1
1
1
1
1
1
0.999999
1
0.999999
1.00001
1.00032
1.00413
1.0325
1.13416
1.4278
1.91423
2.51883
3.18187
3.51374
3.69919
3.87211
4.03394
4.05989
4.04134
4.01155
4.00901
4.05171
4.09485
4.09836
4.08237
4.08382
4.14815
1
1
1
1
1
1
1
1
1
1
1
1
1
1
1
1
1
1
1
1
1
1
1
1
1
1
1
1
1
1
1
1
1
1
1
1
1
1
1
1
1
1
1
1
1
1
1
1
1
1
1
1
1
1
1
1
1
1
1
1
1.00004
1.00079
1.00871
1.04973
1.22433
1.54928
2.13159
2.84685
3.23904
3.58803
3.91458
4.00291
3.98321
3.94612
3.96043
4.05083
4.1095
4.11119
4.10156
4.14796
1
1
1
1
1
1
1
1
1
1
1
1
1
1
1
1
1
1
1
1
1
1
1
1
1
1
1
1
1
1
1
1
1
1
1
1
1
1
1
1
1
1
1
1
1
1
1
1
1
1
1
1
1
1
1
1
1
1
1
1
1
1
1
1.0001
1.00239
1.0163
1.10275
1.33391
1.82698
2.43023
3.02473
3.49257
3.86624
3.97496
3.94426
3.96764
4.06558
4.13071
4.13453
4.16525
1
1
1
1
1
1
1
1
1
1
1
1
1
1
1
1
1
1
1
1
1
1
1
1
1
1
1
1
1
1
1
1
1
1
1
1
1
1
1
1
1
1
1
1
1
1
1
1
1
1
1
1
1
1
1
1
1
1
1
1
1
1
1
1
1
1
1.00057
1.00593
1.04517
1.17991
1.56613
2.14614
2.79254
3.3644
3.83572
3.87816
3.93964
4.07877
4.13674
4.16509
1
1
1
1
1
1
1
1
1
1
1
1
1
1
1
1
1
1
1
1
1
1
1
1
1
1
1
1
1
1
1
1
1
1
1
1
1
1
1
1
1
1
1
1
1
1
1
1
1
1
1
1
1
1
1
1
1
1
1
1
1
1
1
1
1
1
1
0.999998
1.00011
1.00187
1.01945
1.1044
1.37664
1.89604
2.56716
3.21622
3.61017
3.82511
4.03421
4.15827
1
1
1
1
1
1
1
1
1
1
1
1
1
1
1
1
1
1
1
1
1
1
1
1
1
1
1
1
1
1
1
1
1
1
1
1
1
1
1
1
1
1
1
1
1
1
1
1
1
1
1
1
1
1
1
1
1
1
1
1
1
1
1
1
1
1
1
1
1
0.999999
1.00002
1.00068
1.0082
1.0577
1.24136
1.66419
2.27913
2.96686
3.47586
3.91643
1
1
1
1
1
1
1
1
1
1
1
1
1
1
1
1
1
1
1
1
1
1
1
1
1
1
1
1
1
1
1
1
1
1
1
1
1
1
1
1
1
1
1
1
1
1
1
1
1
1
1
1
1
1
1
1
1
1
1
1
1
1
1
1
1
1
1
1
1
1
1
1
1
1.00021
1.00344
1.02854
1.14091
1.46897
1.96062
2.92311
1
1
1
1
1
1
1
1
1
1
1
1
1
1
1
1
1
1
1
1
1
1
1
1
1
1
1
1
1
1
1
1
1
1
1
1
1
1
1
1
1
1
1
1
1
1
1
1
1
1
1
1
1
1
1
1
1
1
1
1
1
1
1
1
1
1
1
1
1
1
1
1
1
1
0.999999
1.00005
1.00122
1.01315
1.06189
1.46718
1
1
1
1
1
1
1
1
1
1
1
1
1
1
1
1
1
1
1
1
1
1
1
1
1
1
1
1
1
1
1
1
1
1
1
1
1
1
1
1
1
1
1
1
1
1
1
1
1
1
1
1
1
1
1
1
1
1
1
1
1
1
1
1
1
1
1
1
1
1
1
1
1
1
1
1
0.999999
1.00001
1.00021
1.01685
1
1
1
1
1
1
1
1
1
1
1
1
1
1
1
1
1
1
1
1
1
1
1
1
1
1
1
1
1
1
1
1
1
1
1
1
1
1
1
1
1
1
1
1
1
1
1
1
1
1
1
1
1
1
1
1
1
1
1
1
1
1
1
1
1
1
1
1
1
1
1
1
1
1
1
1
1
1
1
1.00005
1
1
1
1
1
1
1
1
1
1
1
1
1
1
1
1
1
1
1
1
1
1
1
1
1
1
1
1
1
1
1
1
1
1
1
1
1
1
1
1
1
1
1
1
1
1
1
1
1
1
1
1
1
1
1
1
1
1
1
1
1
1
1
1
1
1
1
1
1
1
1
1
1
1
1
1
1
1
1
1
1
1
1
1
1
1
1
1
1
1
1
1
1
1
1
1
1
1
1
1
1
1
1
1
1
1
1
1
1
1
1
1
1
1
1
1
1
1
1
1
1
1
1
1
1
1
1
1
1
1
1
1
1
1
1
1
1
1
1
1
1
1
1
1
1
1
1
1
1
1
1
1
1
1
1
1
1
1
1
1
1
1
1
1
1
1
1
1
1
1
1
1
1
1
1
1
1
1
1
1
1
1
1
1
1
1
1
1
1
1
1
1
1
1
1
1
1
1
1
1
1
1
1
1
1
1
1
1
1
1
1
1
1
1
1
1
1
1
1
1
1
1
1
1
1
1
1
1
1
1
1
1
1
1
1
1
1
1
1
1
1
1
1
1
1
1
1
1
1
1
1
1
1
1
1
1
1
1
1
1
1
1
1
1
1
1
1
1
1
1
1
1
1
1
1
1
1
1
1
1
1
1
1
1
1
1
1
1
1
1
1
1
1
1
1
1
1
1
1
1
1
1
1
1
1
1
1
1
1
1
1
1
1
1
1
1
1
1
1
1
1
1
1
1
1
1
1
1
1
1
1
1
1
1
1
1
1
1
1
1
1
1
1
1
1
1
1
1
1
1
1
1
1
1
1
1
1
1
1
1
1
1
1
1
1
1
1
1
1
1
1
1
1
1
1
1
1
1
1
1
1
1
1
1
1
1
1
1
1
1
1
1
1
1
1
1
1
1
1
1
1
1
1
1
1
1
1
1
1
1
1
1
1
1
1
1
1
1
1
1
1
1
1
1
1
1
1
1
1
1
1
1
1
1
1
1
1
1
1
1
1
1
1
1
1
1
1
1
1
1
1
1
1
1
1
1
1
1
1
1
1
1
1
1
1
1
1
1
1
1
1
1
1
1
1
1
1
1
1
1
1
1
1
1
1
1
1
1
1
1
1
1
1
1
1
1
1
1
1
1
1
1
1
1
1
1
1
1
1
1
1
1
1
1
1
1
1
1
1
1
1
1
1
1
1
1
1
1
1
1
1
1
1
1
1
1
1
1
1
1
1
1
1
1
1
1
1
1
1
1
1
1
1
1
1
1
1
1
1
1
1
1
1
1
1
1
1
1
1
1
1
1
1
1
1
1
1
1
1
1
1
1
1
1
1
1
1
1
1
1
1
1
1
1
1
1
1
1
1
1
1
1
1
1
1
1
1
1
1
1
1
1
1
1
1
1
1
1
1
1
1
1
1
1
1
1
1
1
1
1
1
1
1
1
1
1
1
1
1
1
1
1
1
1
1
1
1
1
1
1
1
1
1
1
1
1
1
1
1
1
1
1
1
1
1
1
1
1
1
1
1
1
1
1
1
1
1
1
1
1
1
1
1
1
1
1
1
1
1
1
1
1
1
1
1
1
1
1
1
1
1
1
1
1
1
1
1
1
1
1
1
1
1
1
1
1
1
1
1
1
1
1
1
1
1
1
1
1
1
1
1
1
1
1
1
1
1
1
1
1
1
1
1
1
1
1
1
1
1
1
1
1
1
1
1
1
1
1
1
1
1
1
1
1
1
1
1
1
1
1
1
1
1
1
1
1
1
1
1
1
1
1
1
1
1
1
1
1
1
1
1
1
1
1
1
1
1
1
1
1
)
;

boundaryField
{
    inlet
    {
        type            fixedValue;
        value           uniform 1;
    }
    outlet
    {
        type            zeroGradient;
    }
    bottom
    {
        type            symmetryPlane;
    }
    top
    {
        type            symmetryPlane;
    }
    obstacle
    {
        type            zeroGradient;
    }
    defaultFaces
    {
        type            empty;
    }
}


// ************************************************************************* //
