/*--------------------------------*- C++ -*----------------------------------*\
| =========                 |                                                 |
| \\      /  F ield         | OpenFOAM: The Open Source CFD Toolbox           |
|  \\    /   O peration     | Version:  2206                                  |
|   \\  /    A nd           | Website:  www.openfoam.com                      |
|    \\/     M anipulation  |                                                 |
\*---------------------------------------------------------------------------*/
FoamFile
{
    version     2.0;
    format      ascii;
    arch        "LSB;label=32;scalar=64";
    class       volVectorField;
    location    "0.18";
    object      U;
}
// * * * * * * * * * * * * * * * * * * * * * * * * * * * * * * * * * * * * * //

dimensions      [0 1 -1 0 0 0 0];

internalField   nonuniform List<vector> 
4800
(
(6.11111 -3.79065e-15 0)
(6.11111 -3.27823e-14 0)
(6.11111 -4.74382e-14 0)
(6.11111 -6.12272e-14 0)
(6.11111 -5.89668e-14 0)
(6.11111 -5.32925e-14 0)
(6.11111 -7.86136e-15 0)
(6.11111 3.17321e-14 0)
(6.11111 6.88652e-14 0)
(6.11111 6.14306e-14 0)
(6.11111 2.18071e-14 0)
(6.11111 -1.18587e-14 0)
(6.11111 -6.08105e-15 0)
(6.11111 4.6108e-15 0)
(6.11111 2.66613e-14 0)
(6.11111 1.1362e-14 0)
(6.11111 1.30056e-14 0)
(6.11111 4.8295e-14 0)
(6.11111 4.99053e-14 0)
(6.11111 3.10587e-14 0)
(6.11111 -1.19221e-14 0)
(6.11111 -1.89133e-14 0)
(6.11111 -1.03051e-14 0)
(6.11111 -2.4971e-15 0)
(6.11111 2.5011e-14 0)
(6.11111 4.33141e-14 0)
(6.11111 4.69481e-14 0)
(6.11111 3.15721e-14 0)
(6.11111 8.82486e-15 0)
(6.11111 -1.42925e-14 0)
(6.11111 3.6713e-14 0)
(6.11111 5.28858e-14 0)
(6.11111 4.33942e-14 0)
(6.11111 3.38592e-14 0)
(6.11111 5.19256e-14 0)
(6.11111 9.32061e-14 0)
(6.11111 8.59982e-14 0)
(6.11111 6.91186e-14 0)
(6.11111 7.722e-14 0)
(6.11111 8.13774e-14 0)
(6.11111 -8.03805e-15 0)
(6.11111 -4.98486e-14 0)
(6.11111 -4.40643e-14 0)
(6.11111 -4.24607e-14 0)
(6.11111 -2.82415e-14 0)
(6.11111 -1.69196e-14 0)
(6.11111 -2.24872e-14 0)
(6.11111 -7.07456e-15 0)
(6.11111 1.74063e-14 0)
(6.11111 -9.81836e-15 0)
(6.11111 -7.49963e-14 0)
(6.11111 -1.25172e-13 0)
(6.11111 -1.06028e-13 0)
(6.11111 -6.20274e-14 0)
(6.11111 -2.02735e-14 0)
(6.11111 -1.92533e-14 0)
(6.11111 2.22205e-14 0)
(6.11111 1.60481e-13 0)
(6.11111 1.87142e-13 0)
(6.11111 1.53473e-13 0)
(6.11111 3.13821e-14 0)
(6.11111 -2.07102e-14 0)
(6.11111 4.12071e-14 0)
(6.11111 1.08675e-13 0)
(6.11111 9.60833e-14 0)
(6.11111 4.37542e-14 0)
(6.11111 3.75465e-14 0)
(6.11111 2.1507e-14 0)
(6.11111 -3.09387e-15 0)
(6.11111 -2.65646e-14 0)
(6.11111 -9.99506e-15 0)
(6.11111 2.59178e-14 0)
(6.11111 3.08887e-14 0)
(6.11111 6.84352e-14 0)
(6.11111 1.7584e-13 0)
(6.11111 2.26212e-13 0)
(6.11111 2.74161e-13 0)
(6.11111 2.6783e-13 0)
(6.11111 2.60165e-13 0)
(6.11111 1.97916e-13 0)
(6.11111 -3.79399e-15 0)
(6.11111 1.51326e-14 0)
(6.11111 3.16455e-14 0)
(6.11111 4.17505e-14 0)
(6.11111 3.85833e-14 0)
(6.11111 3.52628e-14 0)
(6.11111 -8.70817e-15 0)
(6.11111 -2.95651e-14 0)
(6.11111 -3.86933e-14 0)
(6.11111 -7.63799e-14 0)
(6.11111 -1.3726e-13 0)
(6.11111 -1.96191e-13 0)
(6.11111 -2.5208e-13 0)
(6.11111 -2.85849e-13 0)
(6.11111 -2.1289e-13 0)
(6.11111 -3.05219e-14 0)
(6.11111 4.56946e-14 0)
(6.11111 9.45063e-14 0)
(6.11111 1.00854e-13 0)
(6.11111 1.11056e-13 0)
(6.11111 9.54798e-14 0)
(6.11111 6.14006e-14 0)
(6.11111 3.78932e-14 0)
(6.11111 2.67413e-14 0)
(6.11111 -1.52426e-14 0)
(6.11111 -2.95518e-14 0)
(6.11111 -2.58078e-14 0)
(6.11111 9.73501e-16 0)
(6.11111 1.33523e-14 0)
(6.11111 2.47943e-14 0)
(6.11111 2.22872e-14 0)
(6.11111 4.63513e-14 0)
(6.11111 3.41026e-14 0)
(6.11111 3.68497e-14 0)
(6.11111 2.42909e-14 0)
(6.11111 3.844e-14 0)
(6.11111 5.54963e-14 0)
(6.11111 1.22775e-13 0)
(6.11111 1.41861e-13 0)
(6.11111 2.14234e-13 0)
(6.11111 -6.61448e-15 0)
(6.11111 1.60828e-14 0)
(6.11111 3.13988e-14 0)
(6.11111 2.55778e-14 0)
(6.11111 5.51429e-15 0)
(6.11111 6.46778e-16 0)
(6.11111 5.56896e-14 0)
(6.11111 6.90586e-14 0)
(6.11111 3.14954e-14 0)
(6.11111 1.62661e-14 0)
(6.11111 -4.78083e-15 0)
(6.11111 -7.19858e-14 0)
(6.11111 -1.14056e-13 0)
(6.11111 -1.10069e-13 0)
(6.11111 -1.12573e-13 0)
(6.11111 -7.38428e-14 0)
(6.11111 4.04537e-14 0)
(6.11111 2.86816e-14 0)
(6.11111 -2.60145e-14 0)
(6.11111 -3.20722e-14 0)
(6.11111 2.88883e-14 0)
(6.11111 4.04603e-14 0)
(6.11111 4.0607e-15 0)
(6.11111 -1.50926e-14 0)
(6.11111 -3.51594e-14 0)
(6.11111 -4.76582e-14 0)
(6.11111 -1.84465e-14 0)
(6.11111 6.50446e-15 0)
(6.11111 1.51326e-14 0)
(6.11111 8.10473e-15 0)
(6.11111 5.46428e-14 0)
(6.11111 1.10656e-13 0)
(6.11111 4.84017e-14 0)
(6.11111 -2.17871e-14 0)
(6.11111 -1.15453e-14 0)
(6.11111 1.38424e-14 0)
(6.11111 3.89201e-14 0)
(6.11111 1.07662e-13 0)
(6.11111 5.15156e-14 0)
(6.11111 2.47384e-13 0)
(6.11111 4.60079e-15 0)
(6.11111 -5.69098e-15 0)
(6.11111 1.97034e-15 0)
(6.11111 1.46692e-16 0)
(6.11111 1.19121e-14 0)
(6.11111 4.74649e-14 0)
(6.11111 7.88536e-14 0)
(6.11111 5.02253e-14 0)
(6.11111 3.885e-14 0)
(6.11111 4.72382e-14 0)
(6.11111 3.25456e-14 0)
(6.11111 -1.66429e-14 0)
(6.11111 -5.63431e-16 0)
(6.11111 3.40225e-14 0)
(6.11111 5.08021e-14 0)
(6.11111 7.38794e-15 0)
(6.11111 -2.49776e-14 0)
(6.11111 -1.49793e-14 0)
(6.11111 -5.47428e-15 0)
(6.11111 -1.19154e-14 0)
(6.11111 -1.5606e-14 0)
(6.11111 -9.62166e-15 0)
(6.11111 -9.19826e-15 0)
(6.11111 -2.35707e-14 0)
(6.11111 -7.90637e-14 0)
(6.11111 -5.51028e-14 0)
(6.11111 -4.89618e-14 0)
(6.11111 -5.14289e-14 0)
(6.11111 -4.6418e-14 0)
(6.11111 -3.01485e-14 0)
(6.11111 7.66132e-15 0)
(6.11111 9.74268e-14 0)
(6.11111 9.51298e-14 0)
(6.11111 6.15906e-14 0)
(6.11111 5.5823e-14 0)
(6.11111 5.87168e-14 0)
(6.11111 9.36095e-14 0)
(6.11111 2.58045e-14 0)
(6.11111 -4.65447e-14 0)
(6.11111 -1.14662e-13 0)
(6.11111 2.1437e-15 0)
(6.11111 -2.04035e-15 0)
(6.11111 -1.88699e-14 0)
(6.11111 -2.47076e-14 0)
(6.11111 -1.1472e-14 0)
(6.11111 1.55427e-14 0)
(6.11111 -9.32161e-15 0)
(6.11111 -3.43826e-14 0)
(6.11111 -1.922e-14 0)
(6.11111 1.63028e-15 0)
(6.11111 6.21441e-15 0)
(6.11111 2.26439e-14 0)
(6.11111 2.51277e-14 0)
(6.11111 5.38926e-14 0)
(6.11111 5.32259e-14 0)
(6.11111 5.67265e-14 0)
(6.11111 2.06702e-15 0)
(6.11111 6.90453e-15 0)
(6.11111 4.42076e-14 0)
(6.11111 4.75482e-14 0)
(6.11111 7.53463e-15 0)
(6.11111 2.00035e-16 0)
(6.11111 -1.66929e-14 0)
(6.11111 -5.84068e-14 0)
(6.11111 -6.16907e-14 0)
(6.11111 6.23441e-16 0)
(6.11111 1.48859e-14 0)
(6.11111 3.11854e-14 0)
(6.11111 7.3446e-15 0)
(6.11111 -8.59482e-15 0)
(6.11111 -2.27806e-14 0)
(6.11111 1.64595e-14 0)
(6.11111 4.29674e-14 0)
(6.11111 5.54262e-14 0)
(6.11111 5.21023e-14 0)
(6.11111 7.8917e-14 0)
(6.11111 1.31639e-13 0)
(6.11111 3.08487e-14 0)
(6.11111 -5.11622e-14 0)
(6.11111 -1.02111e-13 0)
(6.11111 -3.43393e-16 0)
(6.11111 -3.00385e-15 0)
(6.11111 -1.72696e-15 0)
(6.11111 1.45825e-14 0)
(6.11111 1.99134e-14 0)
(6.11111 -9.37829e-15 0)
(6.11111 -7.47296e-14 0)
(6.11111 -8.2781e-14 0)
(6.11111 -6.04104e-14 0)
(6.11111 -3.64496e-14 0)
(6.11111 2.09803e-14 0)
(6.11111 6.15406e-14 0)
(6.11111 7.3616e-14 0)
(6.11111 6.80351e-14 0)
(6.11111 7.25825e-14 0)
(6.11111 9.74868e-14 0)
(6.11111 1.01184e-13 0)
(6.11111 8.95688e-14 0)
(6.11111 8.57615e-14 0)
(6.11111 -4.15405e-15 0)
(6.11111 -7.49363e-14 0)
(6.11111 -7.3446e-14 0)
(6.11111 -9.38629e-14 0)
(6.11111 -8.54814e-14 0)
(6.11111 -3.57662e-14 0)
(6.11111 -2.88817e-14 0)
(6.11111 -2.87716e-14 0)
(6.11111 -1.28189e-14 0)
(6.11111 1.62028e-15 0)
(6.11111 -4.0807e-15 0)
(6.11111 -2.25039e-15 0)
(6.11111 8.95488e-15 0)
(6.11111 7.41495e-14 0)
(6.11111 6.84151e-14 0)
(6.11111 5.20957e-14 0)
(6.11111 3.13454e-14 0)
(6.11111 -1.44858e-14 0)
(6.11111 1.91366e-14 0)
(6.11111 -1.52293e-14 0)
(6.11111 -5.12572e-14 0)
(6.11111 -2.94384e-15 0)
(6.11111 -1.58394e-14 0)
(6.11111 -5.85434e-15 0)
(6.11111 2.20038e-16 0)
(6.11111 -7.44129e-15 0)
(6.11111 -2.96718e-14 0)
(6.11111 -4.30941e-14 0)
(6.11111 -4.11638e-14 0)
(6.11111 -5.85268e-14 0)
(6.11111 -1.39224e-14 0)
(6.11111 4.39209e-14 0)
(6.11111 1.06745e-13 0)
(6.11111 1.26222e-13 0)
(6.11111 9.49697e-14 0)
(6.11111 8.8912e-14 0)
(6.11111 6.51779e-14 0)
(6.11111 5.65764e-14 0)
(6.11111 3.23789e-14 0)
(6.11111 -1.76697e-14 0)
(6.11111 -8.08873e-14 0)
(6.11111 -8.4988e-14 0)
(6.11111 -6.37243e-14 0)
(6.11111 -4.00736e-14 0)
(6.11111 -2.44409e-14 0)
(6.11111 -3.95768e-14 0)
(6.11111 -4.51078e-14 0)
(6.11111 -3.09987e-14 0)
(6.11111 -1.55627e-14 0)
(6.11111 -2.16704e-16 0)
(6.11111 3.78332e-14 0)
(6.11111 2.75114e-14 0)
(6.11111 -1.12819e-14 0)
(6.11111 -3.6913e-14 0)
(6.11111 -6.52879e-14 0)
(6.11111 -1.1802e-15 0)
(6.11111 2.59611e-14 0)
(6.11111 3.00485e-14 0)
(6.11111 6.50446e-14 0)
(6.11111 8.17074e-14 0)
(6.11111 7.96422e-14 0)
(6.11111 -2.17371e-15 0)
(6.11111 -2.38708e-15 0)
(6.11111 -1.06185e-14 0)
(6.11111 -3.20389e-14 0)
(6.11111 -4.26807e-14 0)
(6.11111 -3.61729e-15 0)
(6.11111 3.64296e-14 0)
(6.11111 2.21972e-14 0)
(6.11111 -1.00751e-14 0)
(6.11111 -5.47761e-15 0)
(6.11111 8.04806e-14 0)
(6.11111 1.02564e-13 0)
(6.11111 1.49903e-13 0)
(6.11111 1.76707e-13 0)
(6.11111 1.09482e-13 0)
(6.11111 -4.43743e-15 0)
(6.11111 -1.43458e-14 0)
(6.11111 -4.95486e-14 0)
(6.11111 -1.08242e-13 0)
(6.11111 -8.46413e-14 0)
(6.11111 -5.57363e-14 0)
(6.11111 -3.6833e-14 0)
(6.11111 -8.32144e-15 0)
(6.11111 -1.5516e-14 0)
(6.11111 -4.48411e-14 0)
(6.11111 -7.01321e-14 0)
(6.11111 -4.0597e-14 0)
(6.11111 -2.81549e-14 0)
(6.11111 -2.8885e-14 0)
(6.11111 -2.16237e-14 0)
(6.11111 -8.1254e-14 0)
(6.11111 -1.43748e-13 0)
(6.11111 -1.67986e-13 0)
(6.11111 -1.41798e-13 0)
(6.11111 2.10803e-14 0)
(6.11111 4.72548e-14 0)
(6.11111 1.18687e-14 0)
(6.11111 5.31425e-15 0)
(6.11111 4.39209e-14 0)
(6.11111 1.84146e-14 0)
(6.11111 2.80715e-15 0)
(6.11111 2.39741e-14 0)
(6.11111 4.99086e-15 0)
(6.11111 -9.51498e-15 0)
(6.11111 2.01601e-14 0)
(6.11111 3.93468e-14 0)
(6.11111 5.94503e-14 0)
(6.11111 4.67214e-14 0)
(6.11111 -8.96822e-16 0)
(6.11111 -4.58813e-14 0)
(6.11111 -6.46778e-14 0)
(6.11111 -3.47493e-14 0)
(6.11111 -1.07752e-14 0)
(6.11111 1.59061e-14 0)
(6.11111 7.20458e-15 0)
(6.11111 -2.94351e-14 0)
(6.11111 1.68029e-14 0)
(6.11111 4.40376e-14 0)
(6.11111 1.85999e-14 0)
(6.11111 -5.77233e-14 0)
(6.11111 -1.12313e-13 0)
(6.11111 -1.14283e-13 0)
(6.11111 -6.80017e-14 0)
(6.11111 -6.62714e-14 0)
(6.11111 -7.96238e-14 0)
(6.11111 -9.90938e-14 0)
(6.11111 -1.22701e-13 0)
(6.11111 -1.42548e-13 0)
(6.11111 -1.35787e-13 0)
(6.11111 -1.35663e-13 0)
(6.11111 -1.82795e-13 0)
(6.11111 -1.94767e-13 0)
(6.11111 -1.56684e-13 0)
(6.11111 -3.61129e-14 0)
(6.11111 1.79031e-14 0)
(6.11111 2.13504e-14 0)
(6.11111 -2.12103e-14 0)
(6.11111 -3.51727e-14 0)
(6.11111 2.49243e-14 0)
(6.11111 -1.70277e-14 0)
(6.11111 -1.01017e-15 0)
(6.11111 -6.81118e-15 0)
(6.11111 8.22809e-15 0)
(6.11111 6.39444e-15 0)
(6.11111 9.54832e-15 0)
(6.11111 -3.55928e-14 0)
(6.11111 -4.38342e-14 0)
(6.11111 -3.89401e-14 0)
(6.11111 -3.82933e-14 0)
(6.11111 -7.37194e-14 0)
(6.11111 -7.717e-14 0)
(6.11111 -1.06828e-13 0)
(6.11111 -1.62548e-13 0)
(6.11111 -1.81741e-13 0)
(6.11111 -1.143e-13 0)
(6.11111 -5.47828e-14 0)
(6.11111 -3.3059e-14 0)
(6.11111 6.50479e-14 0)
(6.11111 7.49729e-14 0)
(6.11111 5.01953e-14 0)
(6.11111 3.04686e-14 0)
(6.11111 2.66979e-14 0)
(6.11111 1.65629e-14 0)
(6.11111 -1.85165e-14 0)
(6.11111 -8.56315e-14 0)
(6.11111 -1.33673e-13 0)
(6.11111 -1.64898e-13 0)
(6.11111 -1.58261e-13 0)
(6.11111 -1.39317e-13 0)
(6.11111 -7.38894e-14 0)
(6.11111 -4.71881e-14 0)
(6.11111 -3.4586e-14 0)
(6.11111 -1.71296e-14 0)
(6.11111 3.04653e-14 0)
(6.11111 4.50111e-14 0)
(6.11111 3.74931e-14 0)
(6.11111 4.41776e-14 0)
(6.11111 -4.68348e-14 0)
(6.11111 -1.29879e-13 0)
(6.11111 -1.06779e-13 0)
(6.11111 2.11703e-15 0)
(6.11111 -2.42375e-15 0)
(6.11111 1.05885e-14 0)
(6.11111 1.90099e-14 0)
(6.11111 3.844e-15 0)
(6.11111 -1.99334e-14 0)
(6.11111 -4.49578e-14 0)
(6.11111 -2.55778e-14 0)
(6.11111 -1.18587e-14 0)
(6.11111 6.90786e-15 0)
(6.11111 -1.41024e-14 0)
(6.11111 -6.84218e-14 0)
(6.11111 -1.12249e-13 0)
(6.11111 -7.88903e-14 0)
(6.11111 5.84768e-15 0)
(6.11111 3.55228e-14 0)
(6.11111 2.57511e-14 0)
(6.11111 -2.40108e-14 0)
(6.11111 -3.57595e-14 0)
(6.11111 1.34357e-14 0)
(6.11111 1.08635e-13 0)
(6.11111 8.8762e-14 0)
(6.11111 6.44445e-15 0)
(6.11111 -4.24807e-14 0)
(6.11111 -9.65967e-14 0)
(6.11111 -1.47475e-13 0)
(6.11111 -1.48222e-13 0)
(6.11111 -1.35933e-13 0)
(6.11111 -1.04388e-13 0)
(6.11111 -5.07821e-14 0)
(6.11111 9.41829e-15 0)
(6.11111 2.8715e-14 0)
(6.11111 4.11671e-14 0)
(6.11111 7.81068e-14 0)
(6.11111 8.72817e-14 0)
(6.11111 5.94169e-14 0)
(6.11111 -1.70963e-14 0)
(6.11111 -9.16958e-14 0)
(6.11111 -8.53681e-14 0)
(6.11111 -7.35166e-14 0)
(6.11111 -2.31707e-15 0)
(6.11111 -2.81382e-15 0)
(6.11111 -1.7173e-14 0)
(6.11111 -1.13353e-15 0)
(6.11111 8.4848e-15 0)
(6.11111 -3.19055e-15 0)
(6.11111 -3.04486e-14 0)
(6.11111 -2.00601e-14 0)
(6.11111 -1.30589e-14 0)
(6.11111 -2.72714e-15 0)
(6.11111 -6.50779e-15 0)
(6.11111 2.41042e-14 0)
(6.11111 1.48192e-14 0)
(6.11111 5.44627e-14 0)
(6.11111 8.52014e-14 0)
(6.11111 1.16543e-13 0)
(6.11111 5.24757e-14 0)
(6.11111 -6.63014e-14 0)
(6.11111 -1.13733e-13 0)
(6.11111 -8.52547e-14 0)
(6.11111 -4.61313e-14 0)
(6.11111 -7.08689e-14 0)
(6.11111 -1.06212e-13 0)
(6.11111 -1.18984e-13 0)
(6.11111 -9.74402e-14 0)
(6.11111 -8.45879e-14 0)
(6.11111 -4.94419e-14 0)
(6.11111 -3.77899e-14 0)
(6.11111 -2.24772e-14 0)
(6.11111 7.57097e-14 0)
(6.11111 1.03911e-13 0)
(6.11111 6.02604e-14 0)
(6.11111 1.80898e-14 0)
(6.11111 -1.98701e-15 0)
(6.11111 -3.00852e-14 0)
(6.11111 -2.20305e-14 0)
(6.11111 -3.78832e-14 0)
(6.11111 -9.46763e-14 0)
(6.11111 -1.16097e-13 0)
(6.11111 -8.58846e-14 0)
(6.11111 -6.77784e-15 0)
(6.11111 1.17387e-14 0)
(6.11111 1.47125e-14 0)
(6.11111 8.53814e-15 0)
(6.11111 -2.83716e-15 0)
(6.11111 3.93735e-14 0)
(6.11111 4.59513e-14 0)
(6.11111 5.29191e-14 0)
(6.11111 5.2219e-14 0)
(6.11111 7.3596e-14 0)
(6.11111 8.14041e-14 0)
(6.11111 5.65898e-14 0)
(6.11111 3.90067e-14 0)
(6.11111 1.99168e-14 0)
(6.11111 1.05518e-14 0)
(6.11111 1.45125e-14 0)
(6.11111 -2.08703e-15 0)
(6.11111 -3.20922e-14 0)
(6.11111 -5.5793e-14 0)
(6.11111 -8.65249e-14 0)
(6.11111 -1.3246e-13 0)
(6.11111 -1.22504e-13 0)
(6.11111 -1.05658e-13 0)
(6.11111 -1.29022e-14 0)
(6.11111 1.07205e-13 0)
(6.11111 1.42265e-13 0)
(6.11111 1.46235e-13 0)
(6.11111 1.49653e-13 0)
(6.11111 1.3467e-13 0)
(6.11111 8.65016e-14 0)
(6.11111 6.86118e-14 0)
(6.11111 1.89399e-14 0)
(6.11111 -5.6163e-14 0)
(6.11111 -1.01127e-13 0)
(6.11111 -1.04695e-13 0)
(6.11111 -5.9747e-14 0)
(6.11111 2.72014e-14 0)
(6.11111 4.00502e-14 0)
(6.11111 -7.60898e-14 0)
(6.11111 -8.47286e-14 0)
(6.11111 9.93838e-15 0)
(6.11111 1.25422e-14 0)
(6.11111 3.74565e-14 0)
(6.11111 4.09071e-14 0)
(6.11111 6.1894e-14 0)
(6.11111 7.38794e-14 0)
(6.11111 9.02856e-14 0)
(6.11111 8.94488e-14 0)
(6.11111 9.96005e-14 0)
(6.11111 3.34658e-14 0)
(6.11111 8.83486e-15 0)
(6.11111 -1.14386e-14 0)
(6.11111 -1.49859e-14 0)
(6.11111 -8.10807e-15 0)
(6.11111 -1.39157e-14 0)
(6.11111 1.5436e-15 0)
(6.11111 4.45044e-14 0)
(6.11111 9.66534e-14 0)
(6.11111 3.71164e-14 0)
(6.11111 -1.03351e-14 0)
(6.11111 -2.57411e-14 0)
(6.11111 2.5181e-14 0)
(6.11111 4.01103e-14 0)
(6.11111 3.50227e-14 0)
(6.11111 2.16407e-13 0)
(6.11111 3.26166e-13 0)
(6.11111 3.38515e-13 0)
(6.11111 3.26673e-13 0)
(6.11111 2.87436e-13 0)
(6.11111 7.06189e-14 0)
(6.11111 2.56011e-14 0)
(6.11111 -1.34657e-14 0)
(6.11111 -1.05285e-14 0)
(6.11111 4.00069e-15 0)
(6.11111 -9.65167e-15 0)
(6.11111 -6.10339e-14 0)
(6.11111 -5.82267e-14 0)
(6.11111 -2.65746e-14 0)
(6.11111 2.29173e-14 0)
(6.11111 -2.12876e-14 0)
(6.11111 1.29889e-14 0)
(6.11111 -9.91838e-15 0)
(6.11111 -4.20906e-14 0)
(6.11111 -1.00384e-14 0)
(6.11111 1.49793e-14 0)
(6.11111 -1.91766e-14 0)
(6.11111 -1.04351e-15 0)
(6.11111 -2.18938e-14 0)
(6.11111 -2.64646e-14 0)
(6.11111 -3.56795e-14 0)
(6.11111 -6.7625e-14 0)
(6.11111 -6.65715e-14 0)
(6.11111 -4.18139e-14 0)
(6.11111 -2.54177e-14 0)
(6.11111 -4.56879e-14 0)
(6.11111 -4.08371e-14 0)
(6.11111 5.43761e-14 0)
(6.11111 9.54865e-14 0)
(6.11111 8.08073e-14 0)
(6.11111 5.24124e-14 0)
(6.11111 3.69097e-14 0)
(6.11111 2.24205e-14 0)
(6.11111 4.63347e-14 0)
(6.11111 8.24509e-14 0)
(6.11111 8.88087e-14 0)
(6.11111 9.24426e-14 0)
(6.11111 7.01921e-14 0)
(6.11111 9.53565e-14 0)
(6.11111 3.49494e-14 0)
(6.11111 -1.53693e-14 0)
(6.11111 3.56162e-14 0)
(6.11111 1.04345e-13 0)
(6.11111 1.53066e-13 0)
(6.11111 1.38454e-13 0)
(6.11111 9.33228e-14 0)
(6.11111 -1.83498e-14 0)
(6.11111 -1.31579e-13 0)
(6.11111 -1.05622e-13 0)
(6.11111 -6.44145e-14 0)
(6.11111 -8.45089e-14 0)
(6.11111 -1.03018e-14 0)
(6.11111 -7.15457e-15 0)
(6.11111 -3.42292e-14 0)
(6.11111 -6.09872e-14 0)
(6.11111 -8.59615e-14 0)
(6.11111 -1.00794e-13 0)
(6.11111 -9.13724e-14 0)
(6.11111 -1.07509e-13 0)
(6.11111 -8.4848e-14 0)
(6.11111 -3.35891e-14 0)
(6.11111 -1.3249e-14 0)
(6.11111 -1.04651e-14 0)
(6.11111 -2.81449e-14 0)
(6.11111 -5.46761e-15 0)
(6.11111 3.32724e-15 0)
(6.11111 6.59114e-15 0)
(6.11111 -3.14054e-15 0)
(6.11111 -6.20774e-15 0)
(6.11111 -5.28758e-15 0)
(6.11111 3.31424e-14 0)
(6.11111 3.91201e-14 0)
(6.11111 4.2234e-14 0)
(6.11111 5.5873e-14 0)
(6.11111 -4.23606e-14 0)
(6.11111 -1.20881e-13 0)
(6.11111 -1.35847e-13 0)
(6.11111 -1.29066e-13 0)
(6.11111 -1.17357e-13 0)
(6.11111 -7.75634e-14 0)
(6.11111 -3.09187e-14 0)
(6.11111 -1.47092e-14 0)
(6.11111 2.05602e-14 0)
(6.11111 1.80398e-14 0)
(6.11111 -3.32391e-14 0)
(6.11111 -2.79515e-14 0)
(6.11111 -2.8945e-14 0)
(6.11111 -2.84316e-14 0)
(6.11111 -2.84449e-14 0)
(6.11111 -8.16341e-14 0)
(6.11111 -4.66482e-14 0)
(6.11111 -1.61395e-14 0)
(6.11111 1.86032e-15 0)
(6.11111 2.87283e-14 0)
(6.11111 3.06953e-14 0)
(6.11111 8.79485e-15 0)
(6.11111 -2.3194e-14 0)
(6.11111 -2.90817e-14 0)
(6.11111 2.03969e-14 0)
(6.11111 5.781e-14 0)
(6.11111 7.59164e-14 0)
(6.11111 7.95471e-14 0)
(6.11111 5.54529e-14 0)
(6.11111 -6.08438e-15 0)
(6.11111 -1.77964e-14 0)
(6.11111 6.03104e-15 0)
(6.11111 -9.93505e-16 0)
(6.11111 -8.3151e-14 0)
(6.11111 -1.06728e-13 0)
(6.11111 -1.12649e-13 0)
(6.11111 -2.17671e-14 0)
(6.11111 6.52379e-14 0)
(6.11111 8.37745e-14 0)
(6.11111 7.55464e-15 0)
(6.11111 -7.55064e-14 0)
(6.11111 -1.21011e-13 0)
(6.11111 -1.84178e-13 0)
(6.11111 -1.65482e-13 0)
(6.11111 -1.68122e-13 0)
(6.11111 -6.98821e-14 0)
(6.11111 6.50246e-14 0)
(6.11111 5.48428e-14 0)
(6.11111 1.85399e-14 0)
(6.11111 -9.85504e-15 0)
(6.11111 -2.75881e-14 0)
(6.11111 -1.00117e-14 0)
(6.11111 3.85e-14 0)
(6.11111 2.4821e-14 0)
(6.11111 -5.89802e-14 0)
(6.11111 -1.21758e-13 0)
(6.11111 -1.17029e-13 0)
(6.11111 1.3369e-15 0)
(6.11111 -1.99701e-15 0)
(6.11111 -4.64747e-15 0)
(6.11111 -1.55093e-14 0)
(6.11111 -2.68146e-14 0)
(6.11111 1.70129e-14 0)
(6.11111 7.98505e-14 0)
(6.11111 1.10986e-13 0)
(6.11111 4.92952e-14 0)
(6.11111 3.875e-14 0)
(6.11111 3.94902e-14 0)
(6.11111 2.75781e-14 0)
(6.11111 -2.08369e-14 0)
(6.11111 -5.19623e-14 0)
(6.11111 -4.4371e-14 0)
(6.11111 -8.37245e-14 0)
(6.11111 -1.20474e-13 0)
(6.11111 -1.15713e-13 0)
(6.11111 -8.78585e-14 0)
(6.11111 -2.08303e-14 0)
(6.11111 -3.73398e-15 0)
(6.11111 1.7143e-14 0)
(6.11111 8.77952e-14 0)
(6.11111 9.21192e-14 0)
(6.11111 8.02239e-14 0)
(6.11111 3.93068e-15 0)
(6.11111 -3.23989e-14 0)
(6.11111 -9.21826e-15 0)
(6.11111 2.63479e-14 0)
(6.11111 2.30573e-14 0)
(6.11111 -3.74365e-14 0)
(6.11111 -5.76633e-14 0)
(6.11111 -5.49028e-14 0)
(6.11111 5.77166e-14 0)
(6.11111 7.97971e-14 0)
(6.11111 9.77369e-14 0)
(6.11111 1.05685e-13 0)
(6.11111 8.30043e-14 0)
(6.11111 1.42825e-14 0)
(6.11111 -4.55917e-14 0)
(6.11111 1.03918e-14 0)
(6.11111 1.71363e-15 0)
(6.11111 -8.50814e-15 0)
(6.11111 -1.949e-14 0)
(6.11111 -1.31656e-14 0)
(6.11111 1.04885e-14 0)
(6.11111 1.35657e-14 0)
(6.11111 -2.63179e-14 0)
(6.11111 -6.36543e-14 0)
(6.11111 -7.99938e-14 0)
(6.11111 -4.61313e-14 0)
(6.11111 -3.51394e-15 0)
(6.11111 2.78115e-14 0)
(6.11111 5.54429e-15 0)
(6.11111 -3.15421e-14 0)
(6.11111 -1.05515e-13 0)
(6.11111 -1.24141e-13 0)
(6.11111 -8.94321e-14 0)
(6.11111 -7.03155e-14 0)
(6.11111 -2.05102e-14 0)
(6.11111 -1.33323e-14 0)
(6.11111 -1.04551e-14 0)
(6.11111 7.18691e-14 0)
(6.11111 1.16493e-13 0)
(6.11111 1.34527e-13 0)
(6.11111 6.77617e-14 0)
(6.11111 6.23041e-14 0)
(6.11111 8.92154e-14 0)
(6.11111 1.3653e-13 0)
(6.11111 -2.22172e-14 0)
(6.11111 -9.36795e-14 0)
(6.11111 -6.81684e-14 0)
(6.11111 -7.45195e-14 0)
(6.11111 -4.26074e-15 0)
(6.11111 1.67729e-14 0)
(6.11111 -1.64595e-14 0)
(6.11111 -5.98437e-15 0)
(6.11111 -5.51162e-14 0)
(6.11111 -6.47112e-14 0)
(6.11111 -8.16313e-14 0)
(6.11111 6.67782e-15 0)
(6.11111 2.37041e-15 0)
(6.11111 5.93436e-15 0)
(6.11111 4.72115e-14 0)
(6.11111 8.24109e-14 0)
(6.11111 8.78885e-14 0)
(6.11111 5.29658e-14 0)
(6.11111 2.54377e-14 0)
(6.11111 3.60662e-14 0)
(6.11111 1.62161e-14 0)
(6.11111 3.04919e-14 0)
(6.11111 8.66516e-14 0)
(6.11111 1.26368e-13 0)
(6.11111 1.20501e-13 0)
(6.11111 4.0447e-14 0)
(6.11111 -8.35811e-14 0)
(6.11111 -1.00487e-13 0)
(6.11111 -1.25075e-13 0)
(6.11111 -1.18784e-13 0)
(6.11111 -2.58078e-14 0)
(6.11111 1.49993e-14 0)
(6.11111 1.93267e-14 0)
(6.11111 4.63113e-14 0)
(6.11111 1.06528e-13 0)
(6.11111 1.55173e-13 0)
(6.11111 2.05876e-13 0)
(6.11111 6.50579e-14 0)
(6.11111 1.74397e-14 0)
(6.11111 2.77181e-14 0)
(6.11111 4.29874e-14 0)
(6.11111 2.3204e-15 0)
(6.11111 -6.70849e-14 0)
(6.11111 -7.54697e-14 0)
(6.11111 -9.70901e-14 0)
(6.11111 -1.17457e-13 0)
(6.11111 -1.08959e-13 0)
(6.11111 -1.16507e-13 0)
(6.11111 -6.9222e-14 0)
(6.11111 9.36828e-16 0)
(6.11111 6.24453e-14 0)
(6.11111 -4.4641e-15 0)
(6.11111 -7.82135e-15 0)
(6.11111 -5.63764e-15 0)
(6.11111 -8.18808e-15 0)
(6.11111 -3.83066e-15 0)
(6.11111 1.36624e-14 0)
(6.11111 1.04251e-14 0)
(6.11111 -3.43059e-15 0)
(6.11111 9.58499e-15 0)
(6.11111 1.81065e-14 0)
(6.11111 2.83116e-14 0)
(6.11111 3.97969e-14 0)
(6.11111 5.00386e-14 0)
(6.11111 5.71765e-14 0)
(6.11111 2.67346e-14 0)
(6.11111 1.61028e-15 0)
(6.11111 2.50043e-15 0)
(6.11111 -2.68413e-14 0)
(6.11111 -5.4186e-14 0)
(6.11111 -6.79584e-14 0)
(6.11111 6.44111e-15 0)
(6.11111 3.50794e-14 0)
(6.11111 4.11738e-15 0)
(6.11111 5.3876e-14 0)
(6.11111 1.13976e-13 0)
(6.11111 1.53216e-13 0)
(6.11111 1.39764e-13 0)
(6.11111 3.64163e-14 0)
(6.11111 -5.61497e-14 0)
(6.11111 -3.57528e-14 0)
(6.11111 -5.39593e-14 0)
(6.11111 -8.34544e-14 0)
(6.11111 -1.09372e-13 0)
(6.11111 -1.11696e-13 0)
(6.11111 -4.8215e-14 0)
(6.11111 -3.11587e-14 0)
(6.11111 -2.6848e-14 0)
(6.11111 -2.21505e-14 0)
(6.11111 -2.50843e-14 0)
(6.11111 4.83891e-14 0)
(6.11111 -3.0672e-16 0)
(6.11111 2.84783e-14 0)
(6.11111 3.78932e-14 0)
(6.11111 3.32557e-14 0)
(6.11111 3.889e-14 0)
(6.11111 6.05104e-15 0)
(6.11111 -2.33307e-14 0)
(6.11111 -7.56431e-14 0)
(6.11111 -8.00605e-14 0)
(6.11111 -4.68148e-14 0)
(6.11111 -1.20988e-14 0)
(6.11111 -1.63562e-14 0)
(6.11111 -4.50411e-15 0)
(6.11111 3.11087e-14 0)
(6.11111 4.00836e-14 0)
(6.11111 7.11856e-14 0)
(6.11111 9.654e-14 0)
(6.11111 3.52161e-14 0)
(6.11111 -3.834e-15 0)
(6.11111 -5.28758e-14 0)
(6.11111 -3.86533e-14 0)
(6.11111 -6.60781e-15 0)
(6.11111 -3.03086e-14 0)
(6.11111 7.70466e-15 0)
(6.11111 2.66213e-14 0)
(6.11111 2.80915e-14 0)
(6.11111 3.23556e-14 0)
(6.11111 5.51562e-14 0)
(6.11111 5.44294e-14 0)
(6.11111 -9.01356e-14 0)
(6.11111 -1.22514e-13 0)
(6.11111 -1.33623e-13 0)
(6.11111 -1.56994e-13 0)
(6.11111 -8.14041e-14 0)
(6.11111 1.21438e-13 0)
(6.11111 1.43872e-13 0)
(6.11111 1.18714e-13 0)
(6.11111 4.49311e-14 0)
(6.11111 -5.4176e-15 0)
(6.11111 9.52933e-14 0)
(6.11111 -7.89803e-15 0)
(6.11111 -6.50112e-15 0)
(6.11111 -9.12491e-15 0)
(6.11111 -1.53693e-15 0)
(6.11111 -1.1852e-14 0)
(6.11111 -4.72715e-14 0)
(6.11111 -5.12922e-14 0)
(6.11111 -8.61149e-15 0)
(6.11111 5.16423e-15 0)
(6.11111 2.21605e-14 0)
(6.11111 4.27674e-14 0)
(6.11111 5.50328e-14 0)
(6.11111 5.35993e-14 0)
(6.11111 1.96701e-14 0)
(6.11111 6.7645e-14 0)
(6.11111 1.42685e-13 0)
(6.11111 1.57517e-13 0)
(6.11111 1.49836e-13 0)
(6.11111 3.99369e-14 0)
(6.11111 2.37974e-14 0)
(6.11111 2.90617e-14 0)
(6.11111 -3.97735e-15 0)
(6.11111 -1.27922e-14 0)
(6.11111 -1.39591e-14 0)
(6.11111 -3.01419e-14 0)
(6.11111 -4.57879e-14 0)
(6.11111 -9.72368e-14 0)
(6.11111 -1.07042e-13 0)
(6.11111 -1.01531e-13 0)
(6.11111 -9.75235e-14 0)
(6.11111 -1.27429e-13 0)
(6.11111 -1.94727e-13 0)
(6.11111 -1.37597e-13 0)
(6.11111 -8.80652e-14 0)
(6.11111 -5.87868e-14 0)
(6.11111 -1.04685e-14 0)
(6.11111 -2.8845e-14 0)
(6.11111 -4.37776e-14 0)
(6.11111 8.22575e-14 0)
(6.11111 1.20824e-13 0)
(6.11111 -6.21774e-15 0)
(6.11111 -3.90634e-14 0)
(6.11111 -3.73098e-14 0)
(6.11111 -4.23907e-14 0)
(6.11111 -8.73217e-14 0)
(6.11111 -1.00147e-13 0)
(6.11111 -5.93169e-14 0)
(6.11111 -1.23021e-15 0)
(6.11111 8.04472e-14 0)
(6.11111 9.01456e-14 0)
(6.11111 5.95203e-14 0)
(6.11111 4.16505e-14 0)
(6.11111 7.23092e-14 0)
(6.11111 5.59963e-14 0)
(6.11111 1.20788e-14 0)
(6.11111 6.44111e-15 0)
(6.11111 4.99086e-15 0)
(6.11111 2.21272e-14 0)
(6.11111 5.71299e-14 0)
(6.11111 6.61714e-14 0)
(6.11111 -1.64562e-14 0)
(6.11111 -1.15297e-13 0)
(6.11111 -9.06457e-14 0)
(6.11111 -1.09376e-13 0)
(6.11111 -1.34713e-13 0)
(6.11111 -1.36714e-13 0)
(6.11111 -1.45448e-13 0)
(6.11111 -1.38951e-13 0)
(6.11111 -1.57401e-13 0)
(6.11111 -1.47792e-13 0)
(6.11111 -1.44682e-13 0)
(6.11111 -9.71034e-14 0)
(6.11111 -4.25907e-14 0)
(6.11111 -3.94902e-14 0)
(6.11111 -4.38842e-14 0)
(6.11111 5.25791e-14 0)
(6.11111 1.06948e-13 0)
(6.11111 1.42788e-13 0)
(6.11111 1.99001e-13 0)
(6.11111 2.36131e-13 0)
(6.11111 1.34023e-15 0)
(6.11111 1.31989e-14 0)
(6.11111 2.37541e-14 0)
(6.11111 2.68413e-14 0)
(6.11111 2.63145e-14 0)
(6.11111 3.14121e-14 0)
(6.11111 3.10254e-14 0)
(6.11111 2.17571e-14 0)
(6.11111 7.65466e-15 0)
(6.11111 1.01718e-14 0)
(6.11111 -2.38708e-15 0)
(6.11111 -8.77151e-15 0)
(6.11111 -3.2969e-14 0)
(6.11111 -9.96839e-15 0)
(6.11111 -1.88533e-14 0)
(6.11111 -9.63733e-14 0)
(6.11111 -1.00074e-13 0)
(6.11111 -7.85336e-14 0)
(6.11111 -1.01584e-14 0)
(6.11111 -8.27476e-15 0)
(6.11111 -1.06592e-13 0)
(6.11111 -1.1866e-13 0)
(6.11111 -7.28292e-14 0)
(6.11111 -5.47361e-14 0)
(6.11111 -1.48459e-14 0)
(6.11111 2.38408e-14 0)
(6.11111 2.71647e-14 0)
(6.11111 3.62063e-15 0)
(6.11111 2.97018e-14 0)
(6.11111 5.95169e-14 0)
(6.11111 6.74216e-14 0)
(6.11111 9.39162e-14 0)
(6.11111 1.08332e-13 0)
(6.11111 1.21938e-13 0)
(6.11111 1.23408e-13 0)
(6.11111 1.53487e-13 0)
(6.11111 2.58201e-13 0)
(6.11111 2.7267e-13 0)
(6.11111 1.84315e-13 0)
(6.11111 1.48993e-13 0)
(6.11111 5.32425e-15 0)
(6.11111 8.72484e-15 0)
(6.11111 -1.76097e-14 0)
(6.11111 -1.77931e-14 0)
(6.11111 -8.43812e-15 0)
(6.11111 1.66462e-14 0)
(6.11111 3.23089e-14 0)
(6.11111 3.36091e-14 0)
(6.11111 -1.59027e-15 0)
(6.11111 -4.92685e-14 0)
(6.11111 -6.65082e-14 0)
(6.11111 -8.8542e-14 0)
(6.11111 -8.46746e-14 0)
(6.11111 -4.27407e-14 0)
(6.11111 -7.39794e-15 0)
(6.11111 8.86153e-15 0)
(6.11111 1.64762e-14 0)
(6.11111 9.06156e-15 0)
(6.11111 1.84365e-15 0)
(6.11111 2.20805e-14 0)
(6.11111 3.02686e-14 0)
(6.11111 2.4821e-14 0)
(6.11111 3.24489e-14 0)
(6.11111 3.52594e-14 0)
(6.11111 8.28176e-14 0)
(6.11111 5.92802e-14 0)
(6.11111 4.16439e-14 0)
(6.11111 2.41575e-14 0)
(6.11111 4.50444e-14 0)
(6.11111 7.10856e-14 0)
(6.11111 5.58897e-14 0)
(6.11111 5.9957e-14 0)
(6.11111 4.4671e-14 0)
(6.11111 9.37562e-14 0)
(6.11111 1.39231e-13 0)
(6.11111 1.3594e-13 0)
(6.11111 -6.02771e-15 0)
(6.11111 -5.25857e-14 0)
(6.11111 -7.76367e-14 0)
(6.11111 -3.99655e-14 0)
(6.11111 8.00138e-17 0)
(6.11111 -1.61728e-14 0)
(6.11111 -5.17189e-14 0)
(6.11111 -5.97937e-14 0)
(6.11111 -4.34508e-14 0)
(6.11111 -2.49443e-14 0)
(6.11111 -2.83782e-14 0)
(6.11111 -4.48444e-14 0)
(6.11111 -8.95055e-14 0)
(6.11111 -1.21831e-13 0)
(6.11111 -1.55283e-13 0)
(6.11111 -1.34036e-13 0)
(6.11111 -1.04508e-13 0)
(6.11111 -8.58882e-14 0)
(6.11111 9.13491e-15 0)
(6.11111 1.18734e-13 0)
(6.11111 1.21001e-13 0)
(6.11111 5.73432e-14 0)
(6.11111 -2.42375e-15 0)
(6.11111 -1.63695e-15 0)
(6.11111 4.58046e-14 0)
(6.11111 7.41395e-14 0)
(6.11111 -2.19738e-14 0)
(6.11111 -7.01254e-14 0)
(6.11111 -8.07639e-14 0)
(6.11111 -1.00191e-13 0)
(6.11111 -1.03505e-13 0)
(6.11111 -8.31244e-14 0)
(6.11111 -7.13723e-14 0)
(6.11111 -4.91285e-14 0)
(6.11111 -1.40258e-14 0)
(6.11111 -2.19105e-14 0)
(6.11111 -6.32809e-14 0)
(6.11111 -8.78718e-14 0)
(6.11111 -5.0122e-14 0)
(6.11111 -8.17708e-14 0)
(6.11111 -1.9243e-13 0)
(6.11111 -2.22782e-13 0)
(6.11111 -1.59344e-13 0)
(6.11111 -5.502e-14 0)
(6.11111 1.10786e-14 0)
(6.11111 1.90833e-14 0)
(6.11111 4.02803e-14 0)
(6.11111 5.28525e-14 0)
(6.11111 4.83183e-14 0)
(6.11111 4.42776e-14 0)
(6.11111 3.68397e-15 0)
(6.11111 -6.34443e-15 0)
(6.11111 -8.08473e-15 0)
(6.11111 6.25775e-15 0)
(6.11111 4.52411e-15 0)
(6.11111 1.62061e-14 0)
(6.11111 -1.67929e-14 0)
(6.11111 -4.13271e-14 0)
(6.11111 -8.4948e-15 0)
(6.11111 -1.07185e-14 0)
(6.11111 -1.59261e-14 0)
(6.11111 -2.10636e-14 0)
(6.11111 -1.16653e-14 0)
(6.11111 -2.66079e-14 0)
(6.11111 -3.39059e-14 0)
(6.11111 -4.09604e-14 0)
(6.11111 -8.62749e-14 0)
(6.11111 -1.00091e-13 0)
(6.11111 -1.13553e-13 0)
(6.11111 -1.31633e-13 0)
(6.11111 -1.26092e-13 0)
(6.11111 -1.46282e-13 0)
(6.11111 -1.57284e-13 0)
(6.11111 -1.39757e-13 0)
(6.11111 -1.04731e-13 0)
(6.11111 -8.52414e-14 0)
(6.11111 -8.3191e-14 0)
(6.11111 -1.68579e-13 0)
(6.11111 -2.37268e-13 0)
(6.11111 -2.49356e-13 0)
(6.11111 -2.08063e-13 0)
(6.11111 -1.23048e-13 0)
(6.11111 -5.15522e-14 0)
(6.11111 -3.52422e-14 0)
(6.11111 2.24039e-15 0)
(6.11111 1.73463e-14 0)
(6.11111 4.31475e-14 0)
(6.11111 3.91034e-14 0)
(6.11111 4.67047e-14 0)
(6.11111 5.19323e-14 0)
(6.11111 4.71748e-14 0)
(6.11111 4.72015e-14 0)
(6.11111 5.99704e-14 0)
(6.11111 1.19111e-13 0)
(6.11111 1.40304e-13 0)
(6.11111 1.36964e-13 0)
(6.11111 4.54745e-14 0)
(6.11111 -5.51062e-14 0)
(6.11111 -5.43727e-14 0)
(6.11111 -5.99337e-14 0)
(6.11111 -4.92718e-14 0)
(6.11111 -2.94017e-14 0)
(6.11111 6.71783e-15 0)
(6.11111 -5.98003e-14 0)
(6.11111 -1.46942e-13 0)
(6.11111 -1.56297e-13 0)
(6.11111 -1.69326e-13 0)
(6.11111 -1.67329e-13 0)
(6.11111 -1.02454e-13 0)
(6.11111 -1.24605e-13 0)
(6.11111 -1.37914e-13 0)
(6.11111 -1.39281e-13 0)
(6.11111 -1.1345e-13 0)
(6.11111 -1.21824e-13 0)
(6.11111 -7.92704e-14 0)