/*--------------------------------*- C++ -*----------------------------------*\
| =========                 |                                                 |
| \\      /  F ield         | OpenFOAM: The Open Source CFD Toolbox           |
|  \\    /   O peration     | Version:  2206                                  |
|   \\  /    A nd           | Website:  www.openfoam.com                      |
|    \\/     M anipulation  |                                                 |
\*---------------------------------------------------------------------------*/
FoamFile
{
    version     2.0;
    format      ascii;
    arch        "LSB;label=32;scalar=64";
    class       volVectorField;
    location    "0.2";
    object      U;
}
// * * * * * * * * * * * * * * * * * * * * * * * * * * * * * * * * * * * * * //

dimensions      [0 1 -1 0 0 0 0];

internalField   nonuniform List<vector> 
75
(
(5.50505 -7.58089e-15 0)
(5.50505 -7.56381e-15 0)
(5.50505 8.62649e-17 0)
(5.50505 -9.04323e-17 0)
(5.50505 -6.5778e-15 0)
(5.50505 -2.85466e-16 0)
(5.50505 -8.8732e-15 0)
(5.50505 -8.52481e-15 0)
(5.50505 -7.74259e-15 0)
(5.50505 -8.15227e-14 0)
(5.50505 -3.95985e-15 0)
(5.50505 -4.13405e-15 0)
(5.50505 -1.09269e-14 0)
(5.50505 -9.31161e-15 0)
(5.50505 -3.42628e-14 0)
(5.50505 -7.18874e-15 0)
(5.50505 -2.70047e-16 0)
(5.50505 7.23e-15 0)
(5.50505 1.2075e-14 0)
(5.50505 1.16534e-13 0)
(5.50505 3.19639e-15 0)
(5.50505 2.98885e-15 0)
(5.50505 8.09765e-15 0)
(5.50505 1.68925e-14 0)
(5.50505 3.86321e-14 0)
(5.47662 -0.0147508 0)
(5.42541 0.085858 0)
(5.37976 0.0951118 0)
(5.31249 0.25923 0)
(5.26835 0.310239 0)
(5.18513 0.502787 0)
(5.14452 0.585578 0)
(5.05026 0.768096 0)
(5.04297 0.914014 0)
(4.91878 1.09108 0)
(5.50577 -0.00187779 0)
(5.50415 0.00218484 0)
(5.50674 -0.00584752 0)
(5.4822 0.0486455 0)
(5.45969 0.104692 0)
(5.36568 0.330935 0)
(5.30828 0.527943 0)
(5.12947 0.947536 0)
(5.06906 1.23594 0)
(4.8035 1.67658 0)
(5.50507 -4.20921e-05 0)
(5.50507 -4.22475e-05 0)
(5.50502 -7.68118e-05 0)
(5.505 -4.46655e-05 0)
(5.50544 -0.00102217 0)
(5.50385 0.00295284 0)
(5.50499 -0.000493711 0)
(5.48497 0.0709881 0)
(5.474 0.128789 0)
(5.21269 0.86542 0)
(5.50505 4.4115e-07 0)
(5.50505 -3.75081e-06 0)
(5.50505 -3.19816e-06 0)
(5.50505 -1.53531e-05 0)
(5.50504 -7.60482e-05 0)
(5.50511 -0.000142554 0)
(5.50511 -0.000155503 0)
(5.50517 -0.000587288 0)
(5.50482 0.00179033 0)
(5.41135 0.320428 0)
(5.50505 4.80084e-08 0)
(5.50505 3.98071e-09 0)
(5.50505 2.68073e-08 0)
(5.50505 -1.33333e-07 0)
(5.50505 1.00659e-06 0)
(5.50506 -2.59335e-05 0)
(5.50507 -2.46429e-05 0)
(5.50512 -0.000167652 0)
(5.50513 -0.00014103 0)
(5.49056 0.0260485 0)
)
;

boundaryField
{
    inlet
    {
        type            fixedValue;
        value           uniform (5.50505 0 0);
    }
    outlet
    {
        type            zeroGradient;
    }
    bottom
    {
        type            symmetryPlane;
    }
    top
    {
        type            symmetryPlane;
    }
    obstacle
    {
        type            slip;
    }
    defaultFaces
    {
        type            empty;
    }
}


// ************************************************************************* //
