/*--------------------------------*- C++ -*----------------------------------*\
| =========                 |                                                 |
| \\      /  F ield         | OpenFOAM: The Open Source CFD Toolbox           |
|  \\    /   O peration     | Version:  2206                                  |
|   \\  /    A nd           | Website:  www.openfoam.com                      |
|    \\/     M anipulation  |                                                 |
\*---------------------------------------------------------------------------*/
FoamFile
{
    version     2.0;
    format      ascii;
    arch        "LSB;label=32;scalar=64";
    class       volScalarField;
    location    "0.2";
    object      T;
}
// * * * * * * * * * * * * * * * * * * * * * * * * * * * * * * * * * * * * * //

dimensions      [0 0 0 1 0 0 0];

internalField   nonuniform List<scalar> 
4800
(
1
1
1
1
1
1
1
1
1
1
1
1
1
1
1
1
1
1
1
1
1
1
1
1
1
1
1
1
1
1
1
1
1
1
1
1
1
1
1
1
1
1
1
1
1
1
1
1
1
1
1
1
1
1
1
1
1
1
1
1
1
1
1
1
1
1
1
1
1
1
1
1
1
1
1
1
1
1
1
1
1
1
1
1
1
1
1
1
1
1
1
1
1
1
1
1
1
1
1
1
1
1
1
1
1
1
1
1
1
1
1
1
1
1
1
1
1
1
1
1
1
1
1
1
1
1
1
1
1
1
1
1
1
1
1
1
1
1
1
1
1
1
1
1
1
1
1
1
1
1
1
1
1
1
1
1
1
1
1
1
1
1
1
1
1
1
1
1
1
1
1
1
1
1
1
1
1
1
1
1
1
1
1
1
1
1
1
1
1
1
1
1
1
1
1
1
1
1
1
1
1
1
1
1
1
1
1
1
1
1
1
1
1
1
1
1
1
1
1
1
1
1
1
1
1
1
1
1
1
1
1
1
1
1
1
1
1
1
1
1
1
1
1
1
1
1
1
1
1
1
1
1
1
1
1
1
1
1
1
1
1
1
1
1
1
1
1
1
1
1
1
1
1
1
1
1
1
1
1
1
1
1
1
1
1
1
1
1
1
1
1
1
1
1
1
1
1
1
1
1
1
1
1
1
1
1
1
1
1
1
1
1
1
1
1
1
1
1
1
1
1
1
1
1
1
1
1
1
1
1
1
1
1
1
1
1
1
1
1
1
1
1
1
1
1
1
1
1
1
1
1
1
1
1
1
1
1
1
1
1
1
1
1
1
1
1
1
1
1
1
1
1
1
1
1
1
1
1
1
1
1
1
1
1
1
1
1
1
1
1
1
1
1
1
1
1
1
1
1
1
1
1
1
1
1
1
1
1
1
1
1
1
1
1
1
1
1
1
1
1
1
1
1
1
1
1
1
1
1
1
1
1
1
1
1
1
1
1
1
1
1
1
1
1
1
1
1
1
1
1
1
1
1
1
1
1
1
1
1
1
1
1
1
1
1
1
1
1
1
1
1
1
1
1
1
1
1
1
1
1
1
1
1
1
1
1
1
1
1
1
1
1
1
1
1
1
1
1
1
1
1
1
1
1
1
1
1
1
1
1
1
1
1
1
1
1
1
1
1
1
1
1
1
1
1
1
1
1
1
1
1
1
1
1
1
1
1
1
1
1
1
1
1
1
1
1
1
1
1
1
1
1
1
1
1
1
1
1
1
1
1
1
1
1
1
1
1
1
1
1
1
1
1
1
1
1
1
1
1
1
1
1
1
1
1
1
1
1
1
1
1
1
1
1
1
1
1
1
1
1
1
1
1
1
1
1
1
1
1
1
1
1
1
1
1
1
1
1
1
1
1
1
1
1
1
1
1
1
1
1
1
1
1
1
1
1
1
1
1
1
1
1
1
1
1
1
1
1
1
1
1
1
1
1
1
1
1
1
1
1
1
1
1
1
1
1
1
1
1
1
1
1
1
1
1
1
1
1
1
1
1
1
1
1
1
1
1
1
1
1
1
1
1
1
1
1
1
1
1
1
1
1
1
1
1
1
1
1
1
1
1
1
1
1
1
1
1
1
1
1
1
1
1
1
1
1
1
1
1
1
1
1
1
1
1
1
1
1
1
1
1
1
1
1
1
1
1
1
1
1
1
1
1
1
1
1
1
1
1
1
1
1
1
1
1
1
1
1
1
1
1
1
1
1
1
1
1
1
1
1
1
1
1
1
1
1
1
1
1
1
1
1
1
1
1
1
1
1
1
1
1
1
1
1
1
1
1
1
1
1
1
1
1
1
1
1
1
1
1
1
1
1
1
1
1
1
1
1
1
1
1
1
1
1
1
1
1
1
1
1
1
1
1
1
1
1
1
1
1
1
1
1
1
1
1
1
1
1
1
1
1
1
1
1
1
1
1
1
1
1
1
1
1
1
1
1
1
1
1
1
1
1
1
1
1
1
1
1
1
1
1
1
1
1
1
1
1
1
1
1
1
1
1
1
1
1
1
1
1
1
1
1
1
1
1
1
1
1
1
1
1
1
1
1
1
1
1
1
1
1
1
1
1
1
1
1
1
1
1
1
1
1
1
1
1
1
1
1
1
1
1
1
1
1
1
1
1
1
1
1
1
1
1
1
1
1
1
1
1
1
1
1
1
1
1
1
1
1
1
1
1
1
1
1
1
1
1
1
1
1
1
1
1
1
1
1
1
1
1
1
1
1
1
1
1
1
1
1
1
1
1
1
1
1
1
1
1
1
1
1
1
1
1
1
1
1
1
1
1
1
1
1
1
1
1
1
1
1
1
1
1
1
1
1
1
1
1
1
1
1
1
1
1
1
1
1
1
1
1
1
1
1
1
1
1
1
1
1
1
1
1
1
1
1
1
1
1
1
1
1
1
1
1
1
1
1
1
1
1
1
1
1
1
1
1
1
1
1
1
1
1
1
1
1
1
1
1
1
1
1
1
1
1
1
1
1
1
1
1
1
1
1
1
1
1
1
1
1
1
1
1
1
1
1
1
1
1
1
1
1
1
1
1
1
1
1
1
1
1
1
1
1
1
1
1
1
1
1
1
1
1
1
1
1
1
1
1
1
1
1
1
1
1
1
1
1
1
1
1
1
1
1
1
1
1
1
1
1
1
1
1
1
1
1
1
1
1
1
1
1
1
1
1
1
1
1
1
1
1
1
1
1
1
1
1
1
1
1
1
1
1
1
1
1
1
1
1
1
1
1
1
1
1
1
1
1
1
1
1
1
1
1
1
1
1
1
1
1
1
1
1
1
1
1
1
1
1
1
1
1
1
1
1
1
1
1
1
1
1
1
1
1
1
1
1
1
1
1
1
1
1
1
1
1
1
1
1
1
1
1
1
1
1
1
1
1
1
1
1
1
1
1
1
1
1
1
1
1
1
1
1
1
1
1
1
1
1
1
1
1
1
1
1
1
1
1
1
1
1
1
1
1
1
1
1
1
1
1
1
1
1
1
1
1
1
1
1
1
1
1
1
1
1
1
1
1
1
1
1
1
1
1
1
1
1
1
1
1
1
1
1
1
1
1
1
1
1
1
1
1
1
1
1
1
1
1
1
1
1
1
1
1
1
1
1
1
1
1
1
1
1
1
1
1
1
1
1
1
1
1
1
1
1
1
1
1
1
1
1
1
1
1
1
1
1
1
1
1
1
1
1
1
1
1
1
1
1
1
1
1
1
1
1
1
1
1
1
1
1
1
1
1
1
1
1
1
1
1
1
1
1
1
1
1
1
1
1
1
1
1
1
1
1
1
1
1
1
1
1
1
1
1
1
1
1
1
1
1
1
1
1
1
1
1
1
1
1
1
1
1
1
1
1
1
1
1
1
1
1
1
1
1
1
1
1
1
1
1
1
1
1
1
1
1
1
1
1
1
1
1
1
1
1
1
1
1
1
1
1
1
1
1
1
1
1
1
1
1
1
1
1
1
1
1
1
1
1
1
1
1
1
1
1
1
1
1
1
1
1
1
1
1
1
1
1
1
1
1
1
1
1
1
1
1
1
1
1
1
1
1
1
1
1
1
1
1
1
1
1
1
1.07162
1.16747
1.26228
1.34895
1.44082
1.53613
1.59586
1.6397
1.70841
1.75664
1.76171
1.76659
1.76221
1.74605
1.71267
1.66464
1.61729
1.6048
1.59456
1.57478
1.57175
1.57426
1.57992
1.58665
1.59092
1.5923
1.59504
1.59988
1.60533
1.60963
1.6103
1.60982
1.61022
1.61176
1.61311
1.61303
1.61268
1.61186
1.61084
1.61003
1.60996
1.61078
1.61178
1.61297
1.61493
1.6169
1.61797
1.61826
1.61799
1.61687
1.61567
1.61476
1.61425
1.61422
1.61452
1.61487
1.61498
1.61519
1.61562
1.61644
1.61766
1.61887
1.62026
1.62171
1.62256
1.62267
1.62243
1.62134
1.61963
1.61849
1.61818
1.6181
1.61807
1.61836
1.61883
1.61887
1.61881
1.61867
1.61851
1.61866
0.999921
0.999888
1.0077
1.03121
1.0589
1.10949
1.19883
1.26557
1.32263
1.40176
1.45219
1.49865
1.54065
1.56716
1.58404
1.60761
1.62948
1.64379
1.64509
1.63652
1.62419
1.62196
1.61745
1.61307
1.60591
1.60119
1.60093
1.60239
1.60589
1.60938
1.60993
1.61075
1.61289
1.61549
1.61653
1.61656
1.61649
1.61628
1.61625
1.6161
1.61589
1.61589
1.61566
1.61521
1.61523
1.61634
1.61755
1.61807
1.618
1.61797
1.61805
1.61835
1.61916
1.6201
1.62036
1.62029
1.62002
1.61935
1.6185
1.61814
1.61828
1.61859
1.61912
1.62005
1.62122
1.6219
1.62191
1.62159
1.62087
1.62062
1.6208
1.62109
1.62152
1.62193
1.62201
1.6219
1.6216
1.62104
1.62031
1.62016
1
1
1
1
1
0.999884
1.00008
1.00361
1.01242
1.0492
1.11517
1.20235
1.33096
1.45687
1.58886
1.64273
1.69191
1.70169
1.69818
1.69122
1.67998
1.66873
1.6563
1.63678
1.62484
1.61835
1.61631
1.61678
1.61802
1.61954
1.6206
1.62106
1.62174
1.62245
1.62294
1.62434
1.62657
1.62777
1.62845
1.62872
1.62853
1.62791
1.62645
1.62468
1.62357
1.62315
1.6229
1.62259
1.62233
1.62251
1.62338
1.62498
1.62698
1.62823
1.62855
1.62843
1.62793
1.62703
1.62578
1.62448
1.62342
1.62313
1.62309
1.62316
1.6234
1.62359
1.62352
1.62354
1.62374
1.62401
1.62444
1.62518
1.62595
1.62628
1.62625
1.62604
1.62557
1.62477
1.62386
1.62352
1
1
1
1
1
1
1
1
1
1
0.999842
1.00036
1.01182
1.06288
1.1855
1.35156
1.48272
1.60278
1.63688
1.66737
1.66755
1.66063
1.66149
1.67087
1.67184
1.66597
1.65757
1.65244
1.6469
1.64198
1.63584
1.6307
1.62799
1.62805
1.62959
1.63302
1.63747
1.64054
1.64229
1.64325
1.64337
1.64288
1.64103
1.63912
1.63781
1.6365
1.63527
1.63418
1.63301
1.632
1.63188
1.63249
1.63415
1.63621
1.63778
1.63834
1.63821
1.63736
1.63579
1.63395
1.63256
1.6318
1.63126
1.6308
1.63049
1.6302
1.62972
1.62903
1.62875
1.62865
1.62872
1.62917
1.6301
1.6309
1.63112
1.63107
1.63071
1.62991
1.62909
1.62853
1
1
1
1
1
1
1
1
1
1
1
1
1
0.999977
0.999929
1.00968
1.04963
1.16685
1.34356
1.46736
1.57685
1.62688
1.67326
1.70112
1.69891
1.69559
1.68895
1.6809
1.67015
1.65875
1.65308
1.64723
1.64202
1.64085
1.64111
1.6427
1.64614
1.64887
1.64921
1.64889
1.64884
1.64915
1.65005
1.65095
1.65082
1.64989
1.6486
1.64719
1.64528
1.64334
1.64242
1.64243
1.64281
1.64309
1.64336
1.64371
1.64387
1.64387
1.64371
1.64326
1.64247
1.64163
1.64111
1.64084
1.64045
1.63988
1.63908
1.63803
1.63721
1.63679
1.63647
1.63641
1.63644
1.63642
1.6362
1.63569
1.63492
1.63391
1.63359
1.63346
1
1
1
1
1
1
1
1
1
1
1
1
1
1
1
1
0.999937
1.00002
1.01053
1.04452
1.14856
1.32052
1.45331
1.56267
1.60264
1.64389
1.66066
1.66068
1.66294
1.6713
1.67222
1.66727
1.66115
1.65731
1.65404
1.65237
1.65093
1.6484
1.64618
1.64604
1.64672
1.64888
1.65198
1.65526
1.65734
1.6581
1.65811
1.6575
1.65625
1.65438
1.65197
1.65047
1.65019
1.64962
1.64884
1.64826
1.64781
1.64761
1.64768
1.64808
1.64858
1.64879
1.649
1.64938
1.64944
1.64914
1.64849
1.64751
1.64634
1.64564
1.64512
1.64466
1.6442
1.64362
1.64292
1.64194
1.64067
1.63956
1.63897
1.63876
1
1
1
1
1
1
1
1
1
1
1
1
1
1
1
1
1
1
1
0.999948
1.0001
1.00909
1.04242
1.14896
1.30689
1.43239
1.54376
1.59637
1.64829
1.67284
1.67213
1.6706
1.66753
1.66418
1.6593
1.65605
1.65293
1.64903
1.64566
1.64467
1.64483
1.64625
1.6486
1.6515
1.6548
1.65788
1.65953
1.65979
1.65948
1.65896
1.65852
1.65723
1.65467
1.65315
1.65226
1.65148
1.65082
1.65059
1.65043
1.65018
1.65036
1.6511
1.65209
1.65303
1.65356
1.65362
1.65332
1.65263
1.65182
1.6514
1.65098
1.6502
1.64945
1.64884
1.64805
1.64687
1.64555
1.64476
1.6443
1.6442
1
1
1
1
1
1
1
1
1
1
1
1
1
1
1
1
1
1
1
1
0.999999
1
0.999953
1.00034
1.00973
1.04138
1.16034
1.31384
1.44183
1.53641
1.581
1.62319
1.63828
1.6441
1.65234
1.65943
1.65966
1.65625
1.65178
1.64842
1.64629
1.64514
1.64512
1.64573
1.6471
1.64884
1.65068
1.65351
1.65623
1.65758
1.65786
1.65781
1.65774
1.65711
1.65644
1.65576
1.65478
1.65361
1.65255
1.65181
1.65139
1.65155
1.65218
1.65298
1.65313
1.65308
1.65279
1.65252
1.65254
1.65268
1.65293
1.653
1.65294
1.65262
1.652
1.65122
1.6504
1.64986
1.64964
1.64965
1
1
1
1
1
1
1
1
1
1
1
1
1
1
1
1
1
1
1
1
1
1
1
0.999999
1
0.999963
1.00081
1.01241
1.05097
1.17649
1.32126
1.4495
1.53222
1.58199
1.63255
1.64776
1.65039
1.6502
1.64947
1.64767
1.64593
1.6462
1.64551
1.64318
1.641
1.64022
1.64077
1.64289
1.64555
1.64798
1.64976
1.65143
1.65345
1.65462
1.65515
1.65594
1.65679
1.65691
1.65592
1.65395
1.65212
1.6512
1.65127
1.65161
1.65152
1.65125
1.65094
1.6508
1.65087
1.65148
1.65269
1.65404
1.65469
1.65472
1.65452
1.65429
1.65391
1.65349
1.65342
1.65335
1
1
1
1
1
1
1
1
1
1
1
1
1
1
1
1
1
1
1
1
1
1
1
1
1
0.999999
0.999998
1.00001
0.999984
1.00178
1.01597
1.06739
1.21673
1.35128
1.47225
1.53478
1.57795
1.61105
1.63012
1.63805
1.64242
1.64811
1.64951
1.64772
1.64344
1.64029
1.63893
1.63752
1.63719
1.6381
1.63953
1.64096
1.64296
1.6459
1.64907
1.65181
1.6534
1.65366
1.65331
1.65248
1.65227
1.65232
1.6521
1.65149
1.65069
1.64974
1.64919
1.64919
1.64967
1.65068
1.65183
1.65278
1.65352
1.6539
1.65414
1.65427
1.65436
1.65436
1.65445
1.6545
1
1
1
1
1
1
1
1
1
1
1
1
1
1
1
1
1
1
1
1
1
1
1
1
1
1
1
1
1
1
0.99999
1.00007
1.00457
1.026
1.09663
1.24929
1.38215
1.49169
1.54493
1.58885
1.61697
1.63479
1.64057
1.64043
1.63946
1.63916
1.63999
1.64007
1.63878
1.63603
1.63442
1.63425
1.63501
1.63746
1.63981
1.64186
1.64346
1.64458
1.64553
1.64647
1.64746
1.64866
1.64996
1.65089
1.65104
1.65058
1.64948
1.64855
1.64835
1.64876
1.64991
1.65088
1.65136
1.65161
1.65184
1.65227
1.65277
1.65332
1.65376
1.65399
1
1
1
1
1
1
1
1
1
1
1
1
1
1
1
1
1
1
1
1
1
1
1
1
1
1
1
1
1
1
1
0.999999
1
0.999993
1.00038
1.00907
1.03967
1.14919
1.31098
1.43826
1.51656
1.55945
1.59112
1.61192
1.62527
1.63193
1.63587
1.63802
1.63823
1.63778
1.63688
1.63649
1.63618
1.63546
1.63492
1.6351
1.63542
1.63522
1.63512
1.63581
1.63809
1.64172
1.64533
1.64708
1.64752
1.64735
1.64664
1.64679
1.64744
1.64823
1.64889
1.64893
1.64881
1.64866
1.64868
1.64901
1.64969
1.65044
1.65095
1.65175
1
1
1
1
1
1
1
1
1
1
1
1
1
1
1
1
1
1
1
1
1
1
1
1
1
1
1
1
1
1
1
1
1
1
1
0.999997
1.00003
1.00202
1.02183
1.07692
1.21888
1.37196
1.49072
1.5431
1.57496
1.59454
1.61367
1.62601
1.63078
1.63255
1.63344
1.63475
1.63605
1.63709
1.63798
1.63747
1.6344
1.63083
1.6292
1.62936
1.63149
1.63465
1.63712
1.63849
1.63947
1.64074
1.64171
1.64248
1.64385
1.64551
1.64678
1.64712
1.64708
1.6467
1.64619
1.64597
1.64619
1.64702
1.64779
1.64905
1
1
1
1
1
1
1
1
1
1
1
1
1
1
1
1
1
1
1
1
1
1
1
1
1
1
1
1
1
1
1
1
1
1
1
1
1
1
1.00001
1.0003
1.00815
1.04302
1.1449
1.31089
1.45813
1.53345
1.56593
1.58697
1.59919
1.60888
1.61865
1.62758
1.63086
1.63285
1.63439
1.6347
1.63423
1.6337
1.63246
1.63126
1.63105
1.63142
1.63199
1.63226
1.63261
1.63274
1.63348
1.63514
1.63778
1.64059
1.64215
1.64258
1.64261
1.64286
1.64349
1.64384
1.64396
1.6445
1.64523
1.64625
1
1
1
1
1
1
1
1
1
1
1
1
1
1
1
1
1
1
1
1
1
1
1
1
1
1
1
1
1
1
1
1
1
1
1
1
1
1
1
1
0.999998
1.00008
1.00238
1.02835
1.10105
1.24959
1.40593
1.53373
1.57123
1.58469
1.59798
1.60385
1.61105
1.61611
1.62143
1.62613
1.62931
1.63032
1.63078
1.63108
1.63308
1.63456
1.63445
1.63305
1.63085
1.62879
1.62825
1.62928
1.63164
1.63411
1.63585
1.63671
1.63736
1.63813
1.63904
1.6398
1.64038
1.64122
1.64197
1.64332
1
1
1
1
1
1
1
1
1
1
1
1
1
1
1
1
1
1
1
1
1
1
1
1
1
1
1
1
1
1
1
1
1
1
1
1
1
1
1
1
1
1
0.999997
1.00004
1.00085
1.01509
1.07163
1.21001
1.37408
1.52113
1.58621
1.59488
1.60532
1.60434
1.60526
1.60946
1.61368
1.61794
1.62258
1.62731
1.63053
1.63229
1.63297
1.6328
1.63216
1.63082
1.62901
1.62806
1.62834
1.62977
1.63118
1.6318
1.63214
1.63261
1.63358
1.63485
1.63587
1.63678
1.63754
1.6392
1
1
1
1
1
1
1
1
1
1
1
1
1
1
1
1
1
1
1
1
1
1
1
1
1
1
1
1
1
1
1
1
1
1
1
1
1
1
1
1
1
1
1
1
0.999998
1.00001
1.00044
1.00822
1.06438
1.1917
1.35344
1.49673
1.58631
1.60605
1.61175
1.61177
1.60969
1.61015
1.61216
1.61593
1.61951
1.62237
1.62516
1.62727
1.62811
1.62786
1.62733
1.62779
1.62911
1.63018
1.63025
1.62988
1.62948
1.62946
1.63003
1.63109
1.63196
1.63267
1.63336
1.63514
1
1
1
1
1
1
1
1
1
1
1
1
1
1
1
1
1
1
1
1
1
1
1
1
1
1
1
1
1
1
1
1
1
1
1
1
1
1
1
1
1
1
1
1
1
1
0.999999
1
1.00042
1.00584
1.05381
1.16966
1.35068
1.49086
1.5814
1.6166
1.61857
1.62196
1.62023
1.61672
1.61623
1.61626
1.61689
1.61778
1.61868
1.62053
1.62333
1.62555
1.62722
1.62856
1.62919
1.62923
1.62904
1.62913
1.62945
1.6298
1.63013
1.63047
1.63067
1.63147
1
1
1
1
1
1
1
1
1
1
1
1
1
1
1
1
1
1
1
1
1
1
1
1
1
1
1
1
1
1
1
1
1
1
1
1
1
1
1
1
1
1
1
1
1
1
1
1
1
0.999998
1.00034
1.00461
1.05478
1.18173
1.34719
1.49001
1.58085
1.61985
1.62692
1.62698
1.62713
1.62548
1.62182
1.61913
1.61751
1.6171
1.61837
1.6202
1.62212
1.62361
1.62511
1.62598
1.62646
1.62695
1.62747
1.62819
1.62911
1.6297
1.62968
1.62971
1
1
1
1
1
1
1
1
1
1
1
1
1
1
1
1
1
1
1
1
1
1
1
1
1
1
1
1
1
1
1
1
1
1
1
1
1
1
1
1
1
1
1
1
1
1
1
1
1
1
1
0.999998
1.00044
1.00545
1.05669
1.20672
1.37555
1.49784
1.57961
1.62108
1.62651
1.62736
1.62927
1.63023
1.62879
1.62406
1.62165
1.62176
1.62218
1.6221
1.62177
1.62141
1.62138
1.62184
1.62313
1.62502
1.62664
1.62726
1.62746
1.62822
1
1
1
1
1
1
1
1
1
1
1
1
1
1
1
1
1
1
1
1
1
1
1
1
1
1
1
1
1
1
1
1
1
1
1
1
1
1
1
1
1
1
1
1
1
1
1
1
1
1
1
1
1
1
1.00065
1.00853
1.06996
1.23963
1.41114
1.52809
1.57741
1.60404
1.62208
1.62781
1.62844
1.62816
1.62781
1.62814
1.62858
1.62834
1.62641
1.6231
1.62018
1.61963
1.62026
1.62133
1.62243
1.6237
1.62527
1.62664
1
1
1
1
1
1
1
1
1
1
1
1
1
1
1
1
1
1
1
1
1
1
1
1
1
1
1
1
1
1
1
1
1
1
1
1
1
1
1
1
1
1
1
1
1
1
1
1
1
1
1
1
1
1
0.999999
1.00001
1.00111
1.01525
1.09329
1.28559
1.4757
1.55383
1.58019
1.5984
1.61127
1.61691
1.62196
1.62609
1.62858
1.62939
1.62888
1.62708
1.62494
1.62238
1.62116
1.62112
1.62153
1.62249
1.62364
1.6246
1
1
1
1
1
1
1
1
1
1
1
1
1
1
1
1
1
1
1
1
1
1
1
1
1
1
1
1
1
1
1
1
1
1
1
1
1
1
1
1
1
1
1
1
1
1
1
1
1
1
1
1
1
1
1
1
0.999999
1.00004
1.00214
1.02959
1.14924
1.34824
1.5204
1.58718
1.59858
1.60704
1.61183
1.61436
1.61734
1.62042
1.62367
1.62508
1.62522
1.62464
1.62389
1.62421
1.62478
1.6245
1.62412
1.62391
1
1
1
1
1
1
1
1
1
1
1
1
1
1
1
1
1
1
1
1
1
1
1
1
1
1
1
1
1
1
1
1
1
1
1
1
1
1
1
1
1
1
1
1
1
1
1
1
1
1
1
1
1
1
1
1
1
1
1
1.0002
1.00596
1.06168
1.21636
1.41159
1.55701
1.62006
1.62311
1.62187
1.61651
1.61585
1.61585
1.61749
1.61836
1.61962
1.62176
1.62497
1.6259
1.62542
1.62443
1.62414
1
1
1
1
1
1
1
1
1
1
1
1
1
1
1
1
1
1
1
1
1
1
1
1
1
1
1
1
1
1
1
1
1
1
1
1
1
1
1
1
1
1
1
1
1
1
1
1
1
1
1
1
1
1
1
1
1
1
1
1
1.00001
1.00083
1.01565
1.11007
1.31144
1.49641
1.59355
1.63042
1.6302
1.62854
1.62478
1.61984
1.61921
1.61914
1.62062
1.62341
1.62474
1.6243
1.62283
1.62223
1
1
1
1
1
1
1
1
1
1
1
1
1
1
1
1
1
1
1
1
1
1
1
1
1
1
1
1
1
1
1
1
1
1
1
1
1
1
1
1
1
1
1
1
1
1
1
1
1
1
1
1
1
1
1
1
1
1
1
1
1
0.999999
1.0001
1.00297
1.05088
1.22004
1.4085
1.5443
1.61136
1.62434
1.62869
1.62934
1.62776
1.62568
1.62594
1.62658
1.62621
1.62489
1.6225
1.62099
1
1
1
1
1
1
1
1
1
1
1
1
1
1
1
1
1
1
1
1
1
1
1
1
1
1
1
1
1
1
1
1
1
1
1
1
1
1
1
1
1
1
1
1
1
1
1
1
1
1
1
1
1
1
1
1
1
1
1
1
1
1
1
1
1.00095
1.01452
1.12506
1.33391
1.50679
1.56282
1.60146
1.6263
1.62455
1.62378
1.62669
1.63018
1.6303
1.62861
1.6261
1.62427
1
1
1
1
1
1
1
1
1
1
1
1
1
1
1
1
1
1
1
1
1
1
1
1
1
1
1
1
1
1
1
1
1
1
1
1
1
1
1
1
1
1
1
1
1
1
1
1
1
1
1
1
1
1
1
1
1
1
1
1
1
1
1
1
1
1.00009
1.00604
1.05205
1.24223
1.45383
1.58244
1.61778
1.60886
1.60805
1.6137
1.62211
1.62664
1.62615
1.62619
1.62691
1
1
1
1
1
1
1
1
1
1
1
1
1
1
1
1
1
1
1
1
1
1
1
1
1
1
1
1
1
1
1
1
1
1
1
1
1
1
1
1
1
1
1
1
1
1
1
1
1
1
1
1
1
1
1
1
1
1
1
1
1
1
1
1
1
1
1.00002
1.00101
1.02772
1.16232
1.3783
1.5508
1.6165
1.62128
1.62386
1.6208
1.61915
1.61816
1.61812
1.62166
1
1
1
1
1
1
1
1
1
1
1
1
1
1
1
1
1
1
1
1
1
1
1
1
1
1
1
1
1
1
1
1
1
1
1
1
1
1
1
1
1
1
1
1
1
1
1
1
1
1
1
1
1
1
1
1
1
1
1
1
1
1
1
1
1
1
1
1
1.00038
1.0112
1.09577
1.30211
1.51109
1.60789
1.63418
1.63309
1.63129
1.62663
1.62095
1.62169
1
1
1
1
1
1
1
1
1
1
1
1
1
1
1
1
1
1
1
1
1
1
1
1
1
1
1
1
1
1
1
1
1
1
1
1
1
1
1
1
1
1
1
1
1
1
1
1
1
1
1
1
1
1
1
1
1
1
1
1
1
1
1
1
1
1
1
1
1
1.0001
1.00326
1.05614
1.27662
1.47742
1.57695
1.62487
1.62869
1.62932
1.6308
1.62819
1
1
1
1
1
1
1
1
1
1
1
1
1
1
1
1
1
1
1
1
1
1
1
1
1
1
1
1
1
1
1
1
1
1
1
1
1
1
1
1
1
1
1
1
1
1
1
1
1
1
1
1
1
1
1
1
1
1
1
1
1
1
1
1
1
1
1
1
1
1
1.00002
1.00184
1.03847
1.2353
1.44261
1.58076
1.59702
1.60807
1.62223
1.62851
1
1
1
1
1
1
1
1
1
1
1
1
1
1
1
1
1
1
1
1
1
1
1
1
1
1
1
1
1
1
1
1
1
1
1
1
1
1
1
1
1
1
1
1
1
1
1
1
1
1
1
1
1
1
1
1
1
1
1
1
1
1
1
1
1
1
1
1
1
1
1
1.00001
1.00095
1.02936
1.16224
1.39548
1.56662
1.61408
1.62026
1.61851
1
1
1
1
1
1
1
1
1
1
1
1
1
1
1
1
1
1
1
1
1
1
1
1
1
1
1
1
1
1
1
1
1
1
1
1
1
1
1
1
1
1
1
1
1
1
1
1
1
1
1
1
1
1
1
1
1
1
1
1
1
1
1
1
1
1
1
1
1
1
1
1
1
1.00053
1.01383
1.10535
1.36839
1.55902
1.63224
1.62878
1
1
1
1
1
1
1
1
1
1
1
1
1
1
1
1
1
1
1
1
1
1
1
1
1
1
1
1
1
1
1
1
1
1
1
1
1
1
1
1
1
1
1
1
1
1
1
1
1
1
1
1
1
1
1
1
1
1
1
1
1
1
1
1
1
1
1
1
1
1
1
1
1
1
1.00019
1.00594
1.10347
1.35618
1.54153
1.6199
1
1
1
1
1
1
1
1
1
1
1
1
1
1
1
1
1
1
1
1
1
1
1
1
1
1
1
1
1
1
1
1
1
1
1
1
1
1
1
1
1
1
1
1
1
1
1
1
1
1
1
1
1
1
1
1
1
1
1
1
1
1
1
1
1
1
1
1
1
1
1
1
1
1
1
1.00011
1.00609
1.11123
1.3348
1.55963
1
1
1
1
1
1
1
1
1
1
1
1
1
1
1
1
1
1
1
1
1
1
1
1
1
1
1
1
1
1
1
1
1
1
1
1
1
1
1
1
1
1
1
1
1
1
1
1
1
1
1
1
1
1
1
1
1
1
1
1
1
1
1
1
1
1
1
1
1
1
1
1
1
1
1
1
1.00011
1.00931
1.07983
1.44281
1
1
1
1
1
1
1
1
1
1
1
1
1
1
1
1
1
1
1
1
1
1
1
1
1
1
1
1
1
1
1
1
1
1
1
1
1
1
1
1
1
1
1
1
1
1
1
1
1
1
1
1
1
1
1
1
1
1
1
1
1
1
1
1
1
1
1
1
1
1
1
1
1
1
1
1
1
1.00019
1.00394
1.24052
1
1
1
1
1
1
1
1
1
1
1
1
1
1
1
1
1
1
1
1
1
1
1
1
1
1
1
1
1
1
1
1
1
1
1
1
1
1
1
1
1
1
1
1
1
1
1
1
1
1
1
1
1
1
1
1
1
1
1
1
1
1
1
1
1
1
1
1
1
1
1
1
1
1
1
1
1
1
1.00011
1.06509
1
1
1
1
1
1
1
1
1
1
1
1
1
1
1
1
1
1
1
1
1
1
1
1
1
1
1
1
1
1
1
1
1
1
1
1
1
1
1
1
1
1
1
1
1
1
1
1
1
1
1
1
1
1
1
1
1
1
1
1
1
1
1
1
1
1
1
1
1
1
1
1
1
1
1
1
1
1
1
1.01022
)
;

boundaryField
{
    inlet
    {
        type            fixedValue;
        value           uniform 1;
    }
    outlet
    {
        type            zeroGradient;
    }
    bottom
    {
        type            symmetryPlane;
    }
    top
    {
        type            symmetryPlane;
    }
    obstacle
    {
        type            zeroGradient;
    }
    defaultFaces
    {
        type            empty;
    }
}


// ************************************************************************* //
