/*--------------------------------*- C++ -*----------------------------------*\
| =========                 |                                                 |
| \\      /  F ield         | OpenFOAM: The Open Source CFD Toolbox           |
|  \\    /   O peration     | Version:  2206                                  |
|   \\  /    A nd           | Website:  www.openfoam.com                      |
|    \\/     M anipulation  |                                                 |
\*---------------------------------------------------------------------------*/
FoamFile
{
    version     2.0;
    format      ascii;
    arch        "LSB;label=32;scalar=64";
    class       volScalarField;
    location    "0.18";
    object      rho;
}
// * * * * * * * * * * * * * * * * * * * * * * * * * * * * * * * * * * * * * //

dimensions      [1 -3 0 0 0 0 0];

internalField   nonuniform List<scalar> 
4800
(
1.40001
1.40001
1.40001
1.40001
1.40001
1.40001
1.40001
1.40001
1.40001
1.40001
1.40001
1.40001
1.40001
1.40001
1.40001
1.40001
1.40001
1.40001
1.40001
1.40001
1.40001
1.40001
1.40001
1.40001
1.40001
1.40001
1.40001
1.40001
1.40001
1.40001
1.40001
1.40001
1.40001
1.40001
1.40001
1.40001
1.40001
1.40001
1.40001
1.40001
1.40001
1.40001
1.40001
1.40001
1.40001
1.40001
1.40001
1.40001
1.40001
1.40001
1.40001
1.40001
1.40001
1.40001
1.40001
1.40001
1.40001
1.40001
1.40001
1.40001
1.40001
1.40001
1.40001
1.40001
1.40001
1.40001
1.40001
1.40001
1.40001
1.40001
1.40001
1.40001
1.40001
1.40001
1.40001
1.40001
1.40001
1.40001
1.40001
1.40001
1.40001
1.40001
1.40001
1.40001
1.40001
1.40001
1.40001
1.40001
1.40001
1.40001
1.40001
1.40001
1.40001
1.40001
1.40001
1.40001
1.40001
1.40001
1.40001
1.40001
1.40001
1.40001
1.40001
1.40001
1.40001
1.40001
1.40001
1.40001
1.40001
1.40001
1.40001
1.40001
1.40001
1.40001
1.40001
1.40001
1.40001
1.40001
1.40001
1.40001
1.40001
1.40001
1.40001
1.40001
1.40001
1.40001
1.40001
1.40001
1.40001
1.40001
1.40001
1.40001
1.40001
1.40001
1.40001
1.40001
1.40001
1.40001
1.40001
1.40001
1.40001
1.40001
1.40001
1.40001
1.40001
1.40001
1.40001
1.40001
1.40001
1.40001
1.40001
1.40001
1.40001
1.40001
1.40001
1.40001
1.40001
1.40001
1.40001
1.40001
1.40001
1.40001
1.40001
1.40001
1.40001
1.40001
1.40001
1.40001
1.40001
1.40001
1.40001
1.40001
1.40001
1.40001
1.40001
1.40001
1.40001
1.40001
1.40001
1.40001
1.40001
1.40001
1.40001
1.40001
1.40001
1.40001
1.40001
1.40001
1.40001
1.40001
1.40001
1.40001
1.40001
1.40001
1.40001
1.40001
1.40001
1.40001
1.40001
1.40001
1.40001
1.40001
1.40001
1.40001
1.40001
1.40001
1.40001
1.40001
1.40001
1.40001
1.40001
1.40001
1.40001
1.40001
1.40001
1.40001
1.40001
1.40001
1.40001
1.40001
1.40001
1.40001
1.40001
1.40001
1.40001
1.40001
1.40001
1.40001
1.40001
1.40001
1.40001
1.40001
1.40001
1.40001
1.40001
1.40001
1.40001
1.40001
1.40001
1.40001
1.40001
1.40001
1.40001
1.40001
1.40001
1.40001
1.40001
1.40001
1.40001
1.40001
1.40001
1.40001
1.40001
1.40001
1.40001
1.40001
1.40001
1.40001
1.40001
1.40001
1.40001
1.40001
1.40001
1.40001
1.40001
1.40001
1.40001
1.40001
1.40001
1.40001
1.40001
1.40001
1.40001
1.40001
1.40001
1.40001
1.40001
1.40001
1.40001
1.40001
1.40001
1.40001
1.40001
1.40001
1.40001
1.40001
1.40001
1.40001
1.40001
1.40001
1.40001
1.40001
1.40001
1.40001
1.40001
1.40001
1.40001
1.40001
1.40001
1.40001
1.40001
1.40001
1.40001
1.40001
1.40001
1.40001
1.40001
1.40001
1.40001
1.40001
1.40001
1.40001
1.40001
1.40001
1.40001
1.40001
1.40001
1.40001
1.40001
1.40001
1.40001
1.40001
1.40001
1.40001
1.40001
1.40001
1.40001
1.40001
1.40001
1.40001
1.40001
1.40001
1.40001
1.40001
1.40001
1.40001
1.40001
1.40001
1.40001
1.40001
1.40001
1.40001
1.40001
1.40001
1.40001
1.40001
1.40001
1.40001
1.40001
1.40001
1.40001
1.40001
1.40001
1.40001
1.40001
1.40001
1.40001
1.40001
1.40001
1.40001
1.40001
1.40001
1.40001
1.40001
1.40001
1.40001
1.40001
1.40001
1.40001
1.40001
1.40001
1.40001
1.40001
1.40001
1.40001
1.40001
1.40001
1.40001
1.40001
1.40001
1.40001
1.40001
1.40001
1.40001
1.40001
1.40001
1.40001
1.40001
1.40001
1.40001
1.40001
1.40001
1.40001
1.40001
1.40001
1.40001
1.40001
1.40001
1.40001
1.40001
1.40001
1.40001
1.40001
1.40001
1.40001
1.40001
1.40001
1.40001
1.40001
1.40001
1.40001
1.40001
1.40001
1.40001
1.40001
1.40001
1.40001
1.40001
1.40001
1.40001
1.40001
1.40001
1.40001
1.40001
1.40001
1.40001
1.40001
1.40001
1.40001
1.40001
1.40001
1.40001
1.40001
1.40001
1.40001
1.40001
1.40001
1.40001
1.40001
1.40001
1.40001
1.40001
1.40001
1.40001
1.40001
1.40001
1.40001
1.40001
1.40001
1.40001
1.40001
1.40001
1.40001
1.40001
1.40001
1.40001
1.40001
1.40001
1.40001
1.40001
1.40001
1.40001
1.40001
1.40001
1.40001
1.40001
1.40001
1.40001
1.40001
1.40001
1.40001
1.40001
1.40001
1.40001
1.40001
1.40001
1.40001
1.40001
1.40001
1.40001
1.40001
1.40001
1.40001
1.40001
1.40001
1.40001
1.40001
1.40001
1.40001
1.40001
1.40001
1.40001
1.40001
1.40001
1.40001
1.40001
1.40001
1.40001
1.40001
1.40001
1.40001
1.40001
1.40001
1.40001
1.40001
1.40001
1.40001
1.40001
1.40001
1.40001
1.40001
1.40001
1.40001
1.40001
1.40001
1.40001
1.40001
1.40001
1.40001
1.40001
1.40001
1.40001
1.40001
1.40001
1.40001
1.40001
1.40001
1.40001
1.40001
1.40001
1.40001
1.40001
1.40001
1.40001
1.40001
1.40001
1.40001
1.40001
1.40001
1.40001
1.40001
1.40001
1.40001
1.40001
1.40001
1.40001
1.40001
1.40001
1.40001
1.40001
1.40001
1.40001
1.40001
1.40001
1.40001
1.40001
1.40001
1.40001
1.40001
1.40001
1.40001
1.40001
1.40001
1.40001
1.40001
1.40001
1.40001
1.40001
1.40001
1.40001
1.40001
1.40001
1.40001
1.40001
1.40001
1.40001
1.40001
1.40001
1.40001
1.40001
1.40001
1.40001
1.40001
1.40001
1.40001
1.40001
1.40001
1.40001
1.40001
1.40001
1.40001
1.40001
1.40001
1.40001
1.40001
1.40001
1.40001
1.40001
1.40001
1.40001
1.40001
1.40001
1.40001
1.40001
1.40001
1.40001
1.40001
1.40001
1.40001
1.40001
1.40001
1.40001
1.40001
1.40001
1.40001
1.40001
1.40001
1.40001
1.40001
1.40001
1.40001
1.40001
1.40001
1.40001
1.40001
1.40001
1.40001
1.40001
1.40001
1.40001
1.40001
1.40001
1.40001
1.40001
1.40001
1.40001
1.40001
1.40001
1.40001
1.40001
1.40001
1.40001
1.40001
1.40001
1.40001
1.40001
1.40001
1.40001
1.40001
1.40001
1.40001
1.40001
1.40001
1.40001
1.40001
1.40001
1.40001
1.40001
1.40001
1.40001
1.40001
1.40001
1.40001
1.40001
1.40001
1.40001
1.40001
1.40001
1.40001
1.40001
1.40001
1.40001
1.40001
1.40001
1.40001
1.40001
1.40001
1.40001
1.40001
1.40001
1.40001
1.40001
1.40001
1.40001
1.40001
1.40001
1.40001
1.40001
1.40001
1.40001
1.40001
1.40001
1.40001
1.40001
1.40001
1.40001
1.40001
1.40001
1.40001
1.40001
1.40001
1.40001
1.40001
1.40001
1.40001
1.40001
1.40001
1.40001
1.40001
1.40001
1.40001
1.40001
1.40001
1.40001
1.40001
1.40001
1.40001
1.40001
1.40001
1.40001
1.40001
1.40001
1.40001
1.40001
1.40001
1.40001
1.40001
1.40001
1.40001
1.40001
1.40001
1.40001
1.40001
1.40001
1.40001
1.40001
1.40001
1.40001
1.40001
1.40001
1.40001
1.40001
1.40001
1.40001
1.40001
1.40001
1.40001
1.40001
1.40001
1.40001
1.40001
1.40001
1.40001
1.40001
1.40001
1.40001
1.40001
1.40001
1.40001
1.40001
1.40001
1.40001
1.40001
1.40001
1.40001
1.40001
1.40001
1.40001
1.40001
1.40001
1.40001
1.40001
1.40001
1.40001
1.40001
1.40001
1.40001
1.40001
1.40001
1.40001
1.40001
1.40001
1.40001
1.40001
1.40001
1.40001
1.40001
1.40001
1.40001
1.40001
1.40001
1.40001
1.40001
1.40001
1.40001
1.40001
1.40001
1.40001
1.40001
1.40001
1.40001
1.40001
1.40001
1.40001
1.40001
1.40001
1.40001
1.40001
1.40001
1.40001
1.40001
1.40001
1.40001
1.40001
1.40001
1.40001
1.40001
1.40001
1.40001
1.40001
1.40001
1.40001
1.40001
1.40001
1.40001
1.40001
1.40001
1.40001
1.40001
1.40001
1.40001
1.40001
1.40001
1.40001
1.40001
1.40001
1.40001
1.40001
1.40001
1.40001
1.40001
1.40001
1.40001
1.40001
1.40001
1.40001
1.40001
1.40001
1.40001
1.40001
1.40001
1.40001
1.40001
1.40001
1.40001
1.40001
1.40001
1.40001
1.40001
1.40001
1.40001
1.40001
1.40001
1.40001
1.40001
1.40001
1.40001
1.40001
1.40001
1.40001
1.40001
1.40001
1.40001
1.40001
1.40001
1.40001
1.40001
1.40001
1.40001
1.40001
1.40001
1.40001
1.40001
1.40001
1.40001
1.40001
1.40001
1.40001
1.40001
1.40001
1.40001
1.40001
1.40001
1.40001
1.40001
1.40001
1.40001
1.40001
1.40001
1.40001
1.40001
1.40001
1.40001
1.40001
1.40001
1.40001
1.40001
1.40001
1.40001
1.40001
1.40001
1.40001
1.40001
1.40001
1.40001
1.40001
1.40001
1.40001
1.40001
1.40001
1.40001
1.40001
1.40001
1.40001
1.40001
1.40001
1.40001
1.40001
1.40001
1.40001
1.40001
1.40001
1.40001
1.40001
1.40001
1.40001
1.40001
1.40001
1.40001
1.40001
1.40001
1.40001
1.40001
1.40001
1.40001
1.40001
1.40001
1.40001
1.40001
1.40001
1.40001
1.40001
1.40001
1.40001
1.40001
1.40001
1.40001
1.40001
1.40001
1.40001
1.40001
1.40001
1.40001
1.40001
1.40001
1.40001
1.40001
1.40001
1.40001
1.40001
1.40001
1.40001
1.40001
1.40001
1.40001
1.40001
1.40001
1.40001
1.40001
1.40001
1.40001
1.40001
1.40001
1.40001
1.40001
1.40001
1.40001
1.40001
1.40001
1.40001
1.40001
1.40001
1.40001
1.40001
1.40001
1.40001
1.40001
1.40001
1.40001
1.40001
1.40001
1.40001
1.40001
1.40001
1.40001
1.40001
1.40001
1.40001
1.40001
1.40001
1.40001
1.40001
1.40001
1.40001
1.40001
1.40001
1.40001
1.40001
1.40001
1.40001
1.40001
1.40001
1.40001
1.40001
1.40001
1.40001
1.40001
1.40001
1.40001
1.40001
1.40001
1.40001
1.40001
1.40001
1.40001
1.40001
1.40001
1.40001
1.40001
1.40001
1.40001
1.40001
1.40001
1.40001
1.40001
1.40001
1.40001
1.40001
1.40001
1.40001
1.40001
1.40001
1.40001
1.40001
1.40001
1.40001
1.40001
1.40001
1.40001
1.40001
1.40001
1.40001
1.40001
1.40001
1.40001
1.40001
1.40001
1.40001
1.40001
1.40001
1.40001
1.40001
1.40001
1.40001
1.40001
1.40001
1.40001
1.40001
1.40001
1.40001
1.40001
1.40001
1.40001
1.40001
1.40001
1.40001
1.40001
1.40001
1.40001
1.40001
1.40001
1.40001
1.40001
1.40001
1.40001
1.40001
1.40001
1.40001
1.40001
1.40001
1.40001
1.40001
1.40001
1.40001
1.40001
1.40001
1.40001
1.40001
1.40001
1.40001
1.40001
1.40001
1.40001
1.40001
1.40001
1.40001
1.40001
1.40001
1.40001
1.40001
1.40001
1.40001
1.40001
1.40001
1.40001
1.40001
1.40001
1.40001
1.40001
1.40001
1.40001
1.40001
1.40001
1.40001
1.40001
1.40001
1.40001
1.40001
1.40001
1.40001
1.40001
1.40001
1.40001
1.40001
1.40001
1.40001
1.40001
1.40001
1.40001
1.40001
1.40001
1.40001
1.40001
1.40001
1.40001
1.40001
1.40001
1.40001
1.40001
1.40001
1.40001
1.40001
1.40001
1.40001
1.40001
1.40001
1.40001
1.40001
1.40001
1.40001
1.40001
1.40001
1.40001
1.40001
1.40001
1.40001
1.40001
1.40001
1.40001
1.40001
1.40001
1.40001
1.40001
1.40001
1.40001
1.40001
1.40001
1.40001
1.40001
1.40001
1.40001
1.40001
1.40001
1.40001
1.40001
1.40001
1.40001
1.40001
1.40001
1.40001
1.40001
1.40001
1.40001
1.40001
1.40001
1.40001
1.40001
1.40001
1.40001
1.40001
1.40001
1.40001
1.40001
1.40001
1.40001
1.40001
1.40001
1.40001
1.40001
1.40001
1.40001
1.40001
1.40001
1.40001
1.40001
1.40001
1.40001
1.40001
1.40001
1.40001
1.40001
1.40001
1.40001
1.40001
1.40001
1.40001
1.40001
1.40001
1.40001
1.40001
1.40001
1.40001
1.40001
1.40001
1.40001
1.40001
1.40001
1.40001
1.40001
1.40001
1.40001
1.40001
1.40001
1.40001
1.40001
1.40001
1.40001
1.40001
1.40001
1.40001
1.40001
1.40001
1.40001
1.40001
1.40001
1.40001
1.40001
1.40001
1.40001
1.40001
1.40001
1.40001
1.40001
1.40001
1.40001
1.40001
1.40001
1.40001
1.40001
1.40001
1.40001
1.40001
1.40001
1.40001
1.40001
1.40001
1.40001
1.40001
1.40001
1.40001
1.40001
1.40001
1.40001
1.40001
1.40001
1.40001
1.40001
1.40001
1.40001
1.40001
1.40001
1.40001
1.40001
1.40001
1.40001
1.40001
1.40001
1.40001
1.40001
1.40001
1.40001
1.40001
1.40001
1.40001
1.40001
1.40001
1.40001
1.40001
1.40001
1.40001
1.40001
1.40001
1.40001
1.40001
1.40001
1.40001
1.40001
1.40001
1.40001
1.40001
1.40001
1.40001
1.40001
1.40001
1.40001
1.40001
1.40001
1.40001
1.40001
1.40001
1.40001
1.40001
1.40001
1.40001
1.40001
1.40001
1.40001
1.40001
1.40001
1.40001
1.40001
1.40001
1.40001
1.40001
1.40001
1.40001
1.40001
1.40001
1.40001
1.40001
1.40001
1.40001
1.40001
1.40001
1.40001
1.40001
1.40001
1.40001
1.40001
1.40001
1.40001
1.40001
1.40001
1.40001
1.40001
1.40001
1.40001
1.40001
1.40001
1.40001
1.40001
1.40001
1.40001
1.40001
1.40001
1.40001
1.40001
1.40001
1.40001
1.40001
1.40001
1.40001
1.40001
1.40001
1.40001
1.40001
1.40001
1.40001
1.40001
1.40001
1.40001
1.40001
1.40001
1.40001
1.40001
1.40001
1.40001
1.40001
1.40001
1.40001
1.40001
1.40001
1.40001
1.40001
1.40001
1.40001
1.40001
1.40001
1.40001
1.40001
1.40001
1.40001
1.40001
1.40001
1.40001
1.40001
1.40001
1.40001
1.40001
1.40001
1.40001
1.40001
1.40001
1.40001
1.40001
1.40001
1.40001
1.40001
1.40001
1.40001
1.40001
1.40001
1.40001
1.40001
1.40001
1.40001
1.40001
1.40001
1.40001
1.40001
1.40001
1.40001
1.40001
1.40001
1.40001
1.40001
1.40001
1.40001
1.40001
1.40001
1.40001
1.40001
1.40001
1.40001
1.40001
1.40001
1.40001
1.40001
1.40001
1.40001
1.40001
1.40001
1.40001
1.40001
1.40001
1.40001
1.40001
1.40001
1.40001
1.40001
1.40001
1.40001
1.40001
1.40001
1.40001
1.40001
1.40001
1.40001
1.40001
1.40001
1.40001
1.40001
1.40001
1.40001
1.40001
1.40001
1.40001
1.40001
1.40001
1.40001
1.40001
1.40001
1.40001
1.40001
1.40001
1.40001
1.40001
1.40001
1.40001
1.40001
1.40001
1.40001
1.40001
1.40001
1.40001
1.40001
1.40001
1.40001
1.40001
1.40001
1.40001
1.40001
1.40001
1.40001
1.40001
1.40001
1.40001
1.40001
1.40001
1.40001
1.40001
1.40001
1.40001
1.40001
1.40001
1.40001
1.40001
1.40001
1.40001
1.40001
1.40001
1.40001
1.40001
1.40001
1.40001
1.40001
1.40001
1.40001
1.40001
1.40001
1.40001
1.40001
1.40001
1.40001
1.40001
1.40001
1.40001
1.40001
1.40001
1.40001
1.40001
1.40001
1.40001
1.40001
1.40001
1.40001
1.40001
1.40001
1.40001
1.40001
1.40001
1.40001
1.40001
1.40001
1.40001
1.40001
1.40001
1.40001
1.40001
1.40001
1.40001
1.40001
1.40001
1.40001
1.40001
1.40001
1.40001
1.40001
1.40001
1.40001
1.40001
1.40001
1.40001
1.40001
1.40001
1.40001
1.40001
1.40001
1.40001
1.40001
1.65368
2.01917
2.41479
2.8671
3.22483
3.54453
3.92474
4.14666
4.38819
4.63078
4.67421
4.75123
4.74062
4.6639
4.50551
4.24988
3.91892
3.75435
3.69395
3.58801
3.50242
3.5056
3.5284
3.56318
3.59119
3.60237
3.62444
3.65687
3.67644
3.67473
3.66394
3.66117
3.66937
3.68284
3.68903
3.68698
3.67971
3.67006
3.66545
3.66881
3.67605
3.68463
3.69115
3.69295
3.6927
3.69243
3.69176
3.68913
3.68367
3.67556
3.66727
3.6616
3.66089
3.6631
3.66906
3.67652
3.68433
3.69094
3.69558
3.69816
3.69888
3.69856
3.69781
3.69656
3.69364
3.68759
3.6797
3.6714
3.66733
3.66736
3.66967
3.67509
3.68168
3.68666
3.69002
3.69209
3.69307
3.69337
3.6933
3.69469
1.39963
1.40503
1.41021
1.42752
1.522
1.63982
1.80518
2.07322
2.32404
2.66776
2.95916
3.27499
3.53946
3.70549
3.80795
3.82507
3.89872
3.88772
3.90172
3.8755
3.77044
3.73816
3.70811
3.68488
3.65294
3.60269
3.59004
3.59603
3.61678
3.62856
3.63019
3.63653
3.65379
3.66938
3.67483
3.67401
3.671
3.66623
3.66191
3.66278
3.66515
3.66572
3.66544
3.6687
3.67593
3.68101
3.68278
3.68229
3.67932
3.67839
3.67829
3.67635
3.67448
3.67378
3.67306
3.67164
3.67043
3.66972
3.67024
3.67185
3.6743
3.6784
3.6842
3.68837
3.68893
3.68892
3.68808
3.68575
3.68269
3.68275
3.68449
3.68592
3.68614
3.68514
3.68306
3.68182
3.68012
3.67815
3.6772
3.67916
1.40001
1.4
1.40001
1.4
1.4
1.40001
1.39939
1.4022
1.4147
1.46671
1.5889
1.77713
2.13954
2.59488
3.12357
3.56509
3.84064
4.05272
4.04334
4.01878
3.97175
3.91602
3.85716
3.73809
3.63856
3.56036
3.54468
3.55349
3.57929
3.59102
3.59487
3.6026
3.61881
3.63416
3.64533
3.65024
3.65051
3.64948
3.64909
3.651
3.65183
3.6486
3.64153
3.63685
3.63729
3.64075
3.64721
3.65551
3.66375
3.66857
3.67038
3.67208
3.67351
3.67401
3.67302
3.66932
3.6619
3.65538
3.65094
3.64799
3.647
3.6479
3.65327
3.66412
3.67526
3.6814
3.68313
3.6834
3.68354
3.68469
3.68706
3.68843
3.68813
3.68491
3.67965
3.67463
3.67136
3.66861
3.66596
3.66666
1.40001
1.40001
1.40001
1.40001
1.40001
1.40001
1.40001
1.40001
1.40001
1.40001
1.40001
1.39936
1.40579
1.44787
1.57634
1.92694
2.37919
2.9736
3.32657
3.5453
3.73067
3.72792
3.73838
3.77368
3.75813
3.70871
3.65379
3.64122
3.62559
3.60518
3.55674
3.52822
3.52907
3.53999
3.56453
3.58939
3.60399
3.61383
3.6259
3.63202
3.63166
3.62735
3.6196
3.61021
3.60601
3.60697
3.60974
3.61394
3.62092
3.63076
3.64245
3.65343
3.65974
3.66102
3.65939
3.6559
3.65152
3.64447
3.6374
3.63372
3.63226
3.6323
3.6337
3.63785
3.64529
3.65317
3.6594
3.66458
3.66963
3.6748
3.67923
3.68083
3.68003
3.67608
3.67007
3.66506
3.66184
3.6591
3.6571
3.65795
1.40001
1.40001
1.40001
1.40001
1.40001
1.40001
1.40001
1.40001
1.40001
1.40001
1.40001
1.40001
1.4
1.40001
1.39969
1.40181
1.42966
1.54445
1.89111
2.28603
2.79542
3.17452
3.47924
3.75199
3.77601
3.77761
3.7698
3.74675
3.70795
3.63177
3.54632
3.5048
3.50461
3.51679
3.53866
3.54971
3.55684
3.57323
3.58782
3.59602
3.60369
3.60566
3.60571
3.59836
3.59498
3.59576
3.59564
3.59462
3.59367
3.59389
3.59799
3.60337
3.60977
3.61924
3.62893
3.63397
3.63525
3.63351
3.62934
3.62589
3.62374
3.62291
3.62374
3.62673
3.62966
3.63088
3.63167
3.63308
3.63586
3.64006
3.64476
3.64872
3.65105
3.65197
3.65182
3.6501
3.6496
3.65008
3.65078
3.65288
1.40001
1.40001
1.40001
1.40001
1.40001
1.40001
1.40001
1.40001
1.40001
1.40001
1.40001
1.40001
1.40001
1.40001
1.40001
1.40001
1.40001
1.39973
1.40197
1.42188
1.51042
1.81764
2.21497
2.74389
3.10482
3.37314
3.60081
3.61981
3.62599
3.64811
3.62528
3.58638
3.57868
3.58216
3.57713
3.56319
3.53511
3.52531
3.52661
3.53281
3.55064
3.57125
3.58665
3.5987
3.60787
3.60987
3.60801
3.60088
3.59114
3.58203
3.57471
3.57307
3.57428
3.58113
3.59084
3.60094
3.61133
3.61937
3.622
3.6225
3.62262
3.62263
3.62379
3.62554
3.62468
3.62113
3.6165
3.61342
3.6129
3.61361
3.61501
3.61613
3.61788
3.62085
3.62418
3.62805
3.63291
3.63808
3.64191
3.6461
1.40001
1.40001
1.40001
1.40001
1.40001
1.40001
1.40001
1.40001
1.40001
1.40001
1.40001
1.40001
1.40001
1.40001
1.40001
1.40001
1.40001
1.40001
1.4
1.40001
1.39979
1.40122
1.41898
1.51433
1.81335
2.18031
2.68678
3.05848
3.37429
3.61712
3.64128
3.65753
3.66512
3.65914
3.63875
3.59954
3.54748
3.50681
3.50415
3.51245
3.53008
3.54617
3.5661
3.59248
3.60896
3.61313
3.61405
3.61368
3.60522
3.58408
3.56996
3.56626
3.56663
3.57029
3.57395
3.57726
3.58471
3.59413
3.60464
3.61412
3.61866
3.62026
3.62162
3.62129
3.61798
3.61143
3.60483
3.60051
3.59855
3.59877
3.60038
3.60115
3.6012
3.60188
3.60391
3.60834
3.61508
3.62175
3.62706
3.63334
1.40001
1.40001
1.40001
1.40001
1.40001
1.40001
1.40001
1.40001
1.40001
1.40001
1.40001
1.40001
1.40001
1.40001
1.40001
1.40001
1.40001
1.40001
1.40001
1.40001
1.40001
1.4
1.40001
1.39981
1.40178
1.41724
1.50891
1.79566
2.15937
2.6734
3.03003
3.34256
3.56152
3.58278
3.59815
3.61466
3.60518
3.57679
3.5589
3.54867
3.54164
3.54517
3.5484
3.55898
3.57607
3.59513
3.60923
3.61269
3.61343
3.61384
3.60804
3.6005
3.59504
3.58894
3.58235
3.57856
3.57772
3.57955
3.58262
3.58876
3.59537
3.60004
3.60424
3.6082
3.61068
3.61072
3.609
3.60695
3.60546
3.60504
3.60487
3.60383
3.60228
3.60185
3.60344
3.60602
3.60937
3.61308
3.61721
3.62162
1.40001
1.40001
1.40001
1.40001
1.40001
1.40001
1.40001
1.40001
1.40001
1.40001
1.40001
1.40001
1.40001
1.40001
1.40001
1.40001
1.40001
1.40001
1.40001
1.40001
1.40001
1.40001
1.40001
1.4
1.4
1.40001
1.39987
1.40207
1.4183
1.52512
1.8283
2.2271
2.72493
3.07001
3.41514
3.57535
3.61427
3.6395
3.63611
3.6135
3.58289
3.56698
3.55391
3.54597
3.54447
3.5482
3.56234
3.58114
3.59934
3.61385
3.62528
3.62982
3.63247
3.63187
3.62504
3.60905
3.59038
3.58102
3.57873
3.57868
3.58145
3.58319
3.58502
3.58885
3.59493
3.6014
3.60647
3.61011
3.61305
3.61569
3.61621
3.61547
3.61269
3.60844
3.60742
3.60755
3.60717
3.60719
3.60842
3.60995
1.40001
1.40001
1.40001
1.40001
1.40001
1.40001
1.40001
1.40001
1.40001
1.40001
1.40001
1.40001
1.40001
1.40001
1.40001
1.40001
1.40001
1.40001
1.40001
1.40001
1.40001
1.40001
1.40001
1.40001
1.4
1.4
1.4
1.4
1.40001
1.39995
1.40382
1.42639
1.56609
1.87302
2.27783
2.75461
3.10303
3.43681
3.59363
3.59807
3.60222
3.63421
3.63235
3.60682
3.57795
3.55721
3.54902
3.5506
3.55951
3.57698
3.60442
3.63146
3.64294
3.64583
3.64488
3.63798
3.62888
3.61967
3.61038
3.6006
3.59163
3.58713
3.58786
3.59042
3.59188
3.59371
3.59589
3.60063
3.60825
3.61599
3.61824
3.61727
3.61397
3.61142
3.60975
3.60554
3.60201
3.60093
3.60089
3.60203
1.40001
1.40001
1.40001
1.40001
1.40001
1.40001
1.40001
1.40001
1.40001
1.40001
1.40001
1.40001
1.40001
1.40001
1.40001
1.40001
1.40001
1.40001
1.40001
1.40001
1.40001
1.40001
1.40001
1.40001
1.40001
1.40001
1.40001
1.4
1.40001
1.4
1.40001
1.39997
1.40016
1.40586
1.43566
1.61629
1.9503
2.43236
2.87766
3.22295
3.48927
3.61489
3.66029
3.66108
3.65688
3.6291
3.595
3.57231
3.56635
3.5699
3.58357
3.59734
3.60622
3.61554
3.6242
3.63255
3.63847
3.64016
3.64111
3.63984
3.63331
3.62185
3.61064
3.60448
3.60133
3.59918
3.59902
3.60028
3.60347
3.60701
3.61027
3.61029
3.60886
3.60883
3.60905
3.60974
3.60969
3.60914
3.60855
3.60693
1.40001
1.40001
1.40001
1.40001
1.40001
1.40001
1.40001
1.40001
1.40001
1.40001
1.40001
1.40001
1.40001
1.40001
1.40001
1.40001
1.40001
1.40001
1.40001
1.40001
1.40001
1.40001
1.40001
1.40001
1.40001
1.40001
1.40001
1.40001
1.40001
1.40001
1.40001
1.4
1.4
1.40001
1.39996
1.40086
1.41049
1.46918
1.72389
2.09983
2.59087
2.99265
3.34242
3.58669
3.63426
3.62876
3.64513
3.66577
3.65477
3.63264
3.61719
3.6017
3.59022
3.58621
3.58656
3.59381
3.61021
3.63294
3.65012
3.65376
3.64971
3.64539
3.64459
3.64317
3.6397
3.63103
3.6187
3.60974
3.60779
3.60956
3.6102
3.60882
3.60574
3.60487
3.60544
3.608
3.61147
3.61321
3.61349
3.6128
1.40001
1.40001
1.40001
1.40001
1.40001
1.40001
1.40001
1.40001
1.40001
1.40001
1.40001
1.40001
1.40001
1.40001
1.40001
1.40001
1.40001
1.40001
1.40001
1.40001
1.40001
1.40001
1.40001
1.40001
1.40001
1.40001
1.40001
1.40001
1.40001
1.40001
1.40001
1.40001
1.4
1.4
1.4
1.4
1.40001
1.39999
1.40313
1.42181
1.53526
1.86327
2.3164
2.81352
3.15908
3.4295
3.58046
3.66264
3.6792
3.68771
3.6882
3.67693
3.64846
3.61481
3.59261
3.58977
3.59832
3.61247
3.62288
3.63405
3.64404
3.65042
3.65426
3.65711
3.65732
3.65127
3.64516
3.63898
3.63207
3.62672
3.62227
3.61601
3.60891
3.6069
3.60756
3.60902
3.61063
3.61309
3.61495
3.61594
1.40001
1.40001
1.40001
1.40001
1.40001
1.40001
1.40001
1.40001
1.40001
1.40001
1.40001
1.40001
1.40001
1.40001
1.40001
1.40001
1.40001
1.40001
1.40001
1.40001
1.40001
1.40001
1.40001
1.40001
1.40001
1.40001
1.40001
1.40001
1.40001
1.40001
1.40001
1.40001
1.40001
1.40001
1.40001
1.4
1.4
1.4
1.40001
1.39998
1.4004
1.40898
1.45144
1.67953
2.09843
2.60976
2.99369
3.3342
3.54578
3.6517
3.67512
3.68508
3.69106
3.68847
3.66963
3.64242
3.63152
3.62818
3.62736
3.62738
3.62917
3.628
3.62866
3.63557
3.6459
3.65184
3.65049
3.64929
3.65063
3.65144
3.64996
3.64356
3.63309
3.62372
3.61753
3.61461
3.61442
3.61748
3.62062
3.62072
1.40001
1.40001
1.40001
1.40001
1.40001
1.40001
1.40001
1.40001
1.40001
1.40001
1.40001
1.40001
1.40001
1.40001
1.40001
1.40001
1.40001
1.40001
1.40001
1.40001
1.40001
1.40001
1.40001
1.40001
1.40001
1.40001
1.40001
1.40001
1.40001
1.40001
1.40001
1.40001
1.40001
1.40001
1.40001
1.40001
1.40001
1.40001
1.4
1.4
1.4
1.4
1.40001
1.40337
1.42737
1.54366
1.90875
2.43701
2.9272
3.24841
3.46157
3.595
3.66579
3.68665
3.69126
3.68931
3.69465
3.69528
3.68643
3.67011
3.65218
3.63459
3.62784
3.62919
3.63103
3.63265
3.63474
3.64287
3.65445
3.65804
3.65874
3.65492
3.64635
3.64192
3.6379
3.63449
3.63337
3.63376
3.6338
3.63122
1.40001
1.40001
1.40001
1.40001
1.40001
1.40001
1.40001
1.40001
1.40001
1.40001
1.40001
1.40001
1.40001
1.40001
1.40001
1.40001
1.40001
1.40001
1.40001
1.40001
1.40001
1.40001
1.40001
1.40001
1.40001
1.40001
1.40001
1.40001
1.40001
1.40001
1.40001
1.40001
1.40001
1.40001
1.40001
1.40001
1.40001
1.40001
1.40001
1.40001
1.4
1.4
1.4
1.40001
1.39999
1.40074
1.4159
1.48335
1.78538
2.31289
2.86965
3.18655
3.41622
3.56126
3.63622
3.65959
3.68227
3.70914
3.72472
3.72347
3.71081
3.68558
3.66393
3.65212
3.64082
3.63283
3.63101
3.6362
3.64531
3.6502
3.65184
3.65155
3.6499
3.64894
3.64903
3.65121
3.65214
3.65152
3.65019
3.64518
1.40001
1.40001
1.40001
1.40001
1.40001
1.40001
1.40001
1.40001
1.40001
1.40001
1.40001
1.40001
1.40001
1.40001
1.40001
1.40001
1.40001
1.40001
1.40001
1.40001
1.40001
1.40001
1.40001
1.40001
1.40001
1.40001
1.40001
1.40001
1.40001
1.40001
1.40001
1.40001
1.40001
1.40001
1.40001
1.40001
1.40001
1.40001
1.40001
1.40001
1.40001
1.40001
1.4
1.4
1.4
1.4
1.4
1.40021
1.41019
1.46776
1.68897
2.16632
2.80238
3.20803
3.40792
3.4919
3.54912
3.62307
3.6924
3.71277
3.71345
3.70523
3.69155
3.69239
3.68759
3.67125
3.65866
3.65435
3.65343
3.65383
3.65419
3.64867
3.64454
3.64471
3.64884
3.65503
3.65611
3.65553
3.65499
3.65174
1.40001
1.40001
1.40001
1.40001
1.40001
1.40001
1.40001
1.40001
1.40001
1.40001
1.40001
1.40001
1.40001
1.40001
1.40001
1.40001
1.40001
1.40001
1.40001
1.40001
1.40001
1.40001
1.40001
1.40001
1.40001
1.40001
1.40001
1.40001
1.40001
1.40001
1.40001
1.40001
1.40001
1.40001
1.40001
1.40001
1.40001
1.40001
1.40001
1.40001
1.40001
1.40001
1.40001
1.40001
1.40001
1.4
1.4
1.4
1.4
1.40014
1.40512
1.45062
1.63019
2.10783
2.79421
3.32106
3.41532
3.50438
3.58958
3.62033
3.62119
3.62775
3.64447
3.67724
3.6957
3.69054
3.68161
3.68262
3.68424
3.68313
3.67733
3.65946
3.64719
3.64668
3.64995
3.65454
3.65574
3.65573
3.656
3.65392
1.40001
1.40001
1.40001
1.40001
1.40001
1.40001
1.40001
1.40001
1.40001
1.40001
1.40001
1.40001
1.40001
1.40001
1.40001
1.40001
1.40001
1.40001
1.40001
1.40001
1.40001
1.40001
1.40001
1.40001
1.40001
1.40001
1.40001
1.40001
1.40001
1.40001
1.40001
1.40001
1.40001
1.40001
1.40001
1.40001
1.40001
1.40001
1.40001
1.40001
1.40001
1.40001
1.40001
1.40001
1.40001
1.40001
1.40001
1.4
1.4
1.4
1.4
1.40009
1.40327
1.45222
1.64168
2.15104
2.76598
3.32942
3.57938
3.59122
3.58112
3.55901
3.56424
3.60269
3.64774
3.66928
3.67965
3.68798
3.6943
3.6971
3.68994
3.67129
3.65993
3.65924
3.66161
3.66373
3.66457
3.66441
3.66254
3.65604
1.40001
1.40001
1.40001
1.40001
1.40001
1.40001
1.40001
1.40001
1.40001
1.40001
1.40001
1.40001
1.40001
1.40001
1.40001
1.40001
1.40001
1.40001
1.40001
1.40001
1.40001
1.40001
1.40001
1.40001
1.40001
1.40001
1.40001
1.40001
1.40001
1.40001
1.40001
1.40001
1.40001
1.40001
1.40001
1.40001
1.40001
1.40001
1.40001
1.40001
1.40001
1.40001
1.40001
1.40001
1.40001
1.40001
1.40001
1.40001
1.40001
1.4
1.4
1.4
1.4
1.40016
1.40363
1.46255
1.67459
2.17194
2.81797
3.38829
3.60141
3.58901
3.61302
3.62132
3.63504
3.63996
3.63642
3.64376
3.65738
3.67171
3.67237
3.66312
3.65958
3.66238
3.66954
3.67468
3.67637
3.67613
3.67487
3.6678
1.40001
1.40001
1.40001
1.40001
1.40001
1.40001
1.40001
1.40001
1.40001
1.40001
1.40001
1.40001
1.40001
1.40001
1.40001
1.40001
1.40001
1.40001
1.40001
1.40001
1.40001
1.40001
1.40001
1.40001
1.40001
1.40001
1.40001
1.40001
1.40001
1.40001
1.40001
1.40001
1.40001
1.40001
1.40001
1.40001
1.40001
1.40001
1.40001
1.40001
1.40001
1.40001
1.40001
1.40001
1.40001
1.40001
1.40001
1.40001
1.40001
1.40001
1.40001
1.4
1.4
1.4
1.4
1.4003
1.40479
1.46601
1.71021
2.27638
2.94936
3.38325
3.6092
3.6895
3.70016
3.69317
3.65376
3.64124
3.64597
3.64484
3.64526
3.64487
3.64282
3.64488
3.65355
3.66697
3.67529
3.67731
3.67932
3.67782
1.40001
1.40001
1.40001
1.40001
1.40001
1.40001
1.40001
1.40001
1.40001
1.40001
1.40001
1.40001
1.40001
1.40001
1.40001
1.40001
1.40001
1.40001
1.40001
1.40001
1.40001
1.40001
1.40001
1.40001
1.40001
1.40001
1.40001
1.40001
1.40001
1.40001
1.40001
1.40001
1.40001
1.40001
1.40001
1.40001
1.40001
1.40001
1.40001
1.40001
1.40001
1.40001
1.40001
1.40001
1.40001
1.40001
1.40001
1.40001
1.40001
1.40001
1.40001
1.40001
1.40001
1.4
1.4
1.4
1.4
1.40036
1.40693
1.50105
1.8737
2.48175
3.03008
3.48728
3.6742
3.67441
3.67529
3.69053
3.70541
3.70064
3.67785
3.65878
3.64668
3.64589
3.65282
3.65436
3.65596
3.6574
3.66442
3.6766
1.40001
1.40001
1.40001
1.40001
1.40001
1.40001
1.40001
1.40001
1.40001
1.40001
1.40001
1.40001
1.40001
1.40001
1.40001
1.40001
1.40001
1.40001
1.40001
1.40001
1.40001
1.40001
1.40001
1.40001
1.40001
1.40001
1.40001
1.40001
1.40001
1.40001
1.40001
1.40001
1.40001
1.40001
1.40001
1.40001
1.40001
1.40001
1.40001
1.40001
1.40001
1.40001
1.40001
1.40001
1.40001
1.40001
1.40001
1.40001
1.40001
1.40001
1.40001
1.40001
1.40001
1.40001
1.40001
1.4
1.4
1.4
1.4
1.40118
1.41853
1.56905
2.04967
2.71199
3.26869
3.44942
3.53982
3.63835
3.68875
3.69522
3.69164
3.68585
3.68663
3.68892
3.68413
3.66828
3.65323
3.64812
3.65044
3.66252
1.40001
1.40001
1.40001
1.40001
1.40001
1.40001
1.40001
1.40001
1.40001
1.40001
1.40001
1.40001
1.40001
1.40001
1.40001
1.40001
1.40001
1.40001
1.40001
1.40001
1.40001
1.40001
1.40001
1.40001
1.40001
1.40001
1.40001
1.40001
1.40001
1.40001
1.40001
1.40001
1.40001
1.40001
1.40001
1.40001
1.40001
1.40001
1.40001
1.40001
1.40001
1.40001
1.40001
1.40001
1.40001
1.40001
1.40001
1.40001
1.40001
1.40001
1.40001
1.40001
1.40001
1.40001
1.40001
1.40001
1.40001
1.4
1.4
1.4
1.40003
1.40335
1.44436
1.66609
2.25845
3.11134
3.34004
3.45398
3.57667
3.6269
3.60903
3.61672
3.66012
3.70179
3.70688
3.69754
3.68627
3.67424
3.66672
3.66485
1.40001
1.40001
1.40001
1.40001
1.40001
1.40001
1.40001
1.40001
1.40001
1.40001
1.40001
1.40001
1.40001
1.40001
1.40001
1.40001
1.40001
1.40001
1.40001
1.40001
1.40001
1.40001
1.40001
1.40001
1.40001
1.40001
1.40001
1.40001
1.40001
1.40001
1.40001
1.40001
1.40001
1.40001
1.40001
1.40001
1.40001
1.40001
1.40001
1.40001
1.40001
1.40001
1.40001
1.40001
1.40001
1.40001
1.40001
1.40001
1.40001
1.40001
1.40001
1.40001
1.40001
1.40001
1.40001
1.40001
1.40001
1.40001
1.40001
1.4
1.4
1.4
1.4002
1.40895
1.49377
1.92804
2.64316
3.2361
3.6125
3.63703
3.57043
3.55375
3.58797
3.63961
3.67996
3.68511
3.67946
3.68204
3.68533
3.67719
1.40001
1.40001
1.40001
1.40001
1.40001
1.40001
1.40001
1.40001
1.40001
1.40001
1.40001
1.40001
1.40001
1.40001
1.40001
1.40001
1.40001
1.40001
1.40001
1.40001
1.40001
1.40001
1.40001
1.40001
1.40001
1.40001
1.40001
1.40001
1.40001
1.40001
1.40001
1.40001
1.40001
1.40001
1.40001
1.40001
1.40001
1.40001
1.40001
1.40001
1.40001
1.40001
1.40001
1.40001
1.40001
1.40001
1.40001
1.40001
1.40001
1.40001
1.40001
1.40001
1.40001
1.40001
1.40001
1.40001
1.40001
1.40001
1.40001
1.40001
1.4
1.4
1.4
1.40002
1.40128
1.43545
1.68219
2.2058
2.98078
3.51019
3.60908
3.64135
3.63196
3.61642
3.63105
3.65196
3.65027
3.64509
3.6482
3.65705
1.40001
1.40001
1.40001
1.40001
1.40001
1.40001
1.40001