/*--------------------------------*- C++ -*----------------------------------*\
| =========                 |                                                 |
| \\      /  F ield         | OpenFOAM: The Open Source CFD Toolbox           |
|  \\    /   O peration     | Version:  2206                                  |
|   \\  /    A nd           | Website:  www.openfoam.com                      |
|    \\/     M anipulation  |                                                 |
\*---------------------------------------------------------------------------*/
FoamFile
{
    version     2.0;
    format      ascii;
    arch        "LSB;label=32;scalar=64";
    class       volScalarField;
    location    "0.14";
    object      p;
}
// * * * * * * * * * * * * * * * * * * * * * * * * * * * * * * * * * * * * * //

dimensions      [1 -1 -2 0 0 0 0];

internalField   nonuniform List<scalar> 
75
(
1
1
1
1
1
1
1
1
1
1
1
1
1
1
1
1
1
1
1
1
1
1
1
1
1
1.27903
1.74597
2.31462
3.007
3.68265
4.33736
4.8379
4.75207
4.3993
3.68681
1.00526
1.03562
1.13503
1.31643
1.68039
2.15116
2.85851
3.22786
3.57725
3.51072
0.999965
1
1.00073
1.00612
1.04116
1.17562
1.61531
2.6811
3.40259
3.7224
0.999994
0.999993
0.999985
1.00003
0.999877
1.00223
1.04303
1.42466
2.35985
3.75815
1
0.999999
0.999995
0.999995
0.999967
0.999889
1.00006
1.02516
1.43866
4.13006
)
;

boundaryField
{
    inlet
    {
        type            fixedValue;
        value           uniform 1;
    }
    outlet
    {
        type            zeroGradient;
    }
    bottom
    {
        type            symmetryPlane;
    }
    top
    {
        type            symmetryPlane;
    }
    obstacle
    {
        type            zeroGradient;
    }
    defaultFaces
    {
        type            empty;
    }
}


// ************************************************************************* //
