/*--------------------------------*- C++ -*----------------------------------*\
| =========                 |                                                 |
| \\      /  F ield         | OpenFOAM: The Open Source CFD Toolbox           |
|  \\    /   O peration     | Version:  2206                                  |
|   \\  /    A nd           | Website:  www.openfoam.com                      |
|    \\/     M anipulation  |                                                 |
\*---------------------------------------------------------------------------*/
FoamFile
{
    version     2.0;
    format      ascii;
    arch        "LSB;label=32;scalar=64";
    class       volScalarField;
    location    "0.12";
    object      T;
}
// * * * * * * * * * * * * * * * * * * * * * * * * * * * * * * * * * * * * * //

dimensions      [0 0 0 1 0 0 0];

internalField   nonuniform List<scalar> 
4800
(
1
1
1
1
1
1
1
1
1
1
1
1
1
1
1
1
1
1
1
1
1
1
1
1
1
1
1
1
1
1
1
1
1
1
1
1
1
1
1
1
1
1
1
1
1
1
1
1
1
1
1
1
1
1
1
1
1
1
1
1
1
1
1
1
1
1
1
1
1
1
1
1
1
1
1
1
1
1
1
1
1
1
1
1
1
1
1
1
1
1
1
1
1
1
1
1
1
1
1
1
1
1
1
1
1
1
1
1
1
1
1
1
1
1
1
1
1
1
1
1
1
1
1
1
1
1
1
1
1
1
1
1
1
1
1
1
1
1
1
1
1
1
1
1
1
1
1
1
1
1
1
1
1
1
1
1
1
1
1
1
1
1
1
1
1
1
1
1
1
1
1
1
1
1
1
1
1
1
1
1
1
1
1
1
1
1
1
1
1
1
1
1
1
1
1
1
1
1
1
1
1
1
1
1
1
1
1
1
1
1
1
1
1
1
1
1
1
1
1
1
1
1
1
1
1
1
1
1
1
1
1
1
1
1
1
1
1
1
1
1
1
1
1
1
1
1
1
1
1
1
1
1
1
1
1
1
1
1
1
1
1
1
1
1
1
1
1
1
1
1
1
1
1
1
1
1
1
1
1
1
1
1
1
1
1
1
1
1
1
1
1
1
1
1
1
1
1
1
1
1
1
1
1
1
1
1
1
1
1
1
1
1
1
1
1
1
1
1
1
1
1
1
1
1
1
1
1
1
1
1
1
1
1
1
1
1
1
1
1
1
1
1
1
1
1
1
1
1
1
1
1
1
1
1
1
1
1
1
1
1
1
1
1
1
1
1
1
1
1
1
1
1
1
1
1
1
1
1
1
1
1
1
1
1
1
1
1
1
1
1
1
1
1
1
1
1
1
1
1
1
1
1
1
1
1
1
1
1
1
1
1
1
1
1
1
1
1
1
1
1
1
1
1
1
1
1
1
1
1
1
1
1
1
1
1
1
1
1
1
1
1
1
1
1
1
1
1
1
1
1
1
1
1
1
1
1
1
1
1
1
1
1
1
1
1
1
1
1
1
1
1
1
1
1
1
1
1
1
1
1
1
1
1
1
1
1
1
1
1
1
1
1
1
1
1
1
1
1
1
1
1
1
1
1
1
1
1
1
1
1
1
1
1
1
1
1
1
1
1
1
1
1
1
1
1
1
1
1
1
1
1
1
1
1
1
1
1
1
1
1
1
1
1
1
1
1
1
1
1
1
1
1
1
1
1
1
1
1
1
1
1
1
1
1
1
1
1
1
1
1
1
1
1
1
1
1
1
1
1
1
1
1
1
1
1
1
1
1
1
1
1
1
1
1
1
1
1
1
1
1
1
1
1
1
1
1
1
1
1
1
1
1
1
1
1
1
1
1
1
1
1
1
1
1
1
1
1
1
1
1
1
1
1
1
1
1
1
1
1
1
1
1
1
1
1
1
1
1
1
1
1
1
1
1
1
1
1
1
1
1
1
1
1
1
1
1
1
1
1
1
1
1
1
1
1
1
1
1
1
1
1
1
1
1
1
1
1
1
1
1
1
1
1
1
1
1
1
1
1
1
1
1
1
1
1
1
1
1
1
1
1
1
1
1
1
1
1
1
1
1
1
1
1
1
1
1
1
1
1
1
1
1
1
1
1
1
1
1
1
1
1
1
1
1
1
1
1
1
1
1
1
1
1
1
1
1
1
1
1
1
1
1
1
1
1
1
1
1
1
1
1
1
1
1
1
1
1
1
1
1
1
1
1
1
1
1
1
1
1
1
1
1
1
1
1
1
1
1
1
1
1
1
1
1
1
1
1
1
1
1
1
1
1
1
1
1
1
1
1
1
1
1
1
1
1
1
1
1
1
1
1
1
1
1
1
1
1
1
1
1
1
1
1
1
1
1
1
1
1
1
1
1
1
1
1
1
1
1
1
1
1
1
1
1
1
1
1
1
1
1
1
1
1
1
1
1
1
1
1
1
1
1
1
1
1
1
1
1
1
1
1
1
1
1
1
1
1
1
1
1
1
1
1
1
1
1
1
1
1
1
1
1
1
1
1
1
1
1
1
1
1
1
1
1
1
1
1
1
1
1
1
1
1
1
1
1
1
1
1
1
1
1
1
1
1
1
1
1
1
1
1
1
1
1
1
1
1
1
1
1
1
1
1
1
1
1
1
1
1
1
1
1
1
1
1
1
1
1
1
1
1
1
1
1
1
1
1
1
1
1
1
1
1
1
1
1
1
1
1
1
1
1
1
1
1
1
1
1
1
1
1
1
1
1
1
1
1
1
1
1
1
1
1
1
1
1
1
1
1
1
1
1
1
1
1
1
1
1
1
1
1
1
1
1
1
1
1
1
1
1
1
1
1
1
1
1
1
1
1
1
1
1
1
1
1
1
1
1
1
1
1
1
1
1
1
1
1
1
1
1
1
1
1
1
1
1
1
1
1
1
1
1
1
1
1
1
1
1
1
1
1
1
1
1
1
1
1
1
1
1
1
1
1
1
1
1
1
1
1
1
1
1
1
1
1
1
1
1
1
1
1
1
1
1
1
1
1
1
1
1
1
1
1
1
1
1
1
1
1
1
1
1
1
1
1
1
1
1
1
1
1
1
1
1
1
1
1
1
1
1
1
1
1
1
1
1
1
1
1
1
1
1
1
1
1
1
1
1
1
1
1
1
1
1
1
1
1
1
1
1
1
1
1
1
1
1
1
1
1
1
1
1
1
1
1
1
1
1
1
1
1
1
1
1
1
1
1
1
1
1
1
1
1
1
1
1
1
1
1
1
1
1
1
1
1
1
1
1
1
1
1
1
1
1
1
1
1
1
1
1
1
1
1
1
1
1
1
1
1
1
1
1
1
1
1
1
1
1
1
1
1
1
1
1
1
1
1
1
1
1
1
1
1
1
1
1
1
1
1
1
1
1
1
1
1
1
1
1
1
1
1
1
1
1
1
1
1
1
1
1
1
1
1
1
1
1
1
1
1
1
1
1
1
1
1
1
1
1
1
1
1
1
1
1
1
1
1
1
1
1
1
1
1
1
1
1
1
1
1
1
1
1
1
1
1
1
1
1
1
1
1
1
1
1
1
1
1
1
1
1
1
1
1
1
1
1
1
1
1
1
1
1
1
1
1
1
1
1
1
1
1
1
1
1
1
1
1
1
1
1
1
1
1
1
1
1
1
1
1
1
1
1
1
1
1
1
1
1
1
1
1
1
1
1
1
1
1
1
1
1
1
1
1
1
1
1
1
1
1
1
1
1
1
1
1
1
1
1
1
1
1
1
1
1
1
1
1
1
1
1
1
1
1
1
1
1
1
1
1
1
1
1
1
1
1
1
1
1
1
1
1
1
1
1
1
1
1
1
1
1
1
1
1
1
1
1
1
1
1
1
1
1
1
1
1
1
1
1
1
1
1
1
1
1
1
1
1
1
1
1
1
1
1
1
1
1
1
1
1
1
1
1
1
1
1
1
1
1
1
1
1
1
1
1
1
1
1
1
1
1
1
1
1
1
1
1
1
1
1
1
1
1
1
1
1
1
1
1
1
1
1
1
1
1
1
1
1
1
1
1
1
1
1
1
1
1
1
1
1
1
1.07066
1.16391
1.25743
1.35797
1.45974
1.53687
1.60128
1.68739
1.79243
1.83314
1.85525
1.8921
1.92743
1.93008
1.91756
1.89168
1.867
1.83301
1.78205
1.73755
1.72336
1.70883
1.68619
1.68494
1.68977
1.70033
1.7109
1.7152
1.7183
1.7241
1.7326
1.73756
1.73701
1.73526
1.73569
1.73794
1.74057
1.74049
1.73938
1.73783
1.73839
1.74214
1.74655
1.74859
1.74851
1.7475
1.74551
1.74269
1.74062
1.74009
1.74002
1.74056
1.74269
1.74663
1.7497
1.75165
1.75253
1.75245
1.75143
1.74986
1.74791
1.74575
1.74391
1.74303
1.74304
1.74415
1.7464
1.74913
1.75188
1.75403
1.75579
1.75729
1.75797
1.75772
1.75658
1.7547
1.75151
1.74883
1.74741
1.74741
1
0.999953
1.00073
1.00094
1.01535
1.07742
1.14338
1.18866
1.26973
1.38528
1.44175
1.49141
1.55596
1.61136
1.64269
1.671
1.7022
1.72176
1.74591
1.76414
1.78079
1.7834
1.77739
1.76047
1.75341
1.74852
1.74556
1.73596
1.7274
1.72753
1.73137
1.73657
1.7375
1.7381
1.74027
1.74367
1.74643
1.74675
1.74637
1.74485
1.7436
1.74398
1.74482
1.74647
1.74869
1.74997
1.75007
1.74979
1.75007
1.75026
1.74959
1.74808
1.74723
1.74711
1.74746
1.74851
1.7499
1.75151
1.75269
1.7529
1.75303
1.75304
1.75279
1.75228
1.75199
1.75198
1.75185
1.7515
1.75113
1.75111
1.75167
1.75315
1.75525
1.75663
1.75661
1.75596
1.75512
1.75428
1.75387
1.75395
1
1
1
1
1
1
0.999992
1
0.999561
1.00385
1.01892
1.05576
1.13135
1.24799
1.37165
1.5065
1.65104
1.76633
1.80576
1.85402
1.85716
1.85362
1.84661
1.83102
1.81437
1.79925
1.77858
1.7583
1.74462
1.74509
1.74921
1.75114
1.75225
1.75418
1.75696
1.76091
1.76286
1.76296
1.76251
1.76158
1.75967
1.75761
1.75671
1.75581
1.75571
1.75742
1.76119
1.76433
1.76554
1.76533
1.76389
1.76176
1.75961
1.75797
1.75683
1.75563
1.75443
1.75415
1.75564
1.75929
1.76241
1.76365
1.76378
1.76376
1.76369
1.76335
1.76217
1.76022
1.75807
1.75589
1.75488
1.75464
1.75469
1.75604
1.75842
1.76034
1.76167
1.76188
1.76192
1.76186
1
1
1
1
1
1
1
1
1
1
1
1
1
0.999601
1.00315
1.03686
1.12924
1.33794
1.51015
1.64231
1.73513
1.77312
1.81487
1.81388
1.80831
1.81161
1.81873
1.81544
1.80321
1.7975
1.79455
1.78943
1.78249
1.7752
1.77009
1.76982
1.77216
1.77638
1.77877
1.7794
1.77897
1.77802
1.77663
1.77384
1.77104
1.77082
1.77244
1.77599
1.77958
1.78195
1.78224
1.78072
1.77748
1.7733
1.76996
1.76802
1.76587
1.7644
1.76459
1.76611
1.76879
1.77171
1.77429
1.77621
1.77674
1.77613
1.77427
1.77113
1.76662
1.76294
1.76164
1.76147
1.7616
1.76225
1.76319
1.76452
1.7659
1.76727
1.76849
1.76925
1
1
1
1
1
1
1
1
1
1
1
1
1
1
1
1
0.999845
1.00002
1.01935
1.07466
1.24143
1.4279
1.57064
1.68467
1.74986
1.82879
1.85567
1.85317
1.85109
1.84554
1.8376
1.82603
1.80603
1.78786
1.7811
1.78165
1.7861
1.79166
1.79401
1.79446
1.79364
1.7918
1.791
1.78934
1.78659
1.78635
1.78726
1.788
1.78866
1.79046
1.79249
1.79268
1.79151
1.78929
1.78801
1.78659
1.78398
1.78048
1.77938
1.77967
1.77971
1.77982
1.7804
1.78179
1.78338
1.78411
1.78379
1.78159
1.77885
1.77705
1.77589
1.77541
1.77483
1.77418
1.77409
1.77404
1.774
1.77379
1.77372
1.77396
1
1
1
1
1
1
1
1
1
1
1
1
1
1
1
1
1
1
1
1
0.999568
1.00664
1.03748
1.17158
1.34606
1.49582
1.62977
1.70708
1.78897
1.81468
1.81365
1.81334
1.81235
1.80507
1.79985
1.79966
1.80322
1.80393
1.80516
1.80353
1.79963
1.79639
1.79528
1.79459
1.79422
1.795
1.7972
1.79704
1.79626
1.79506
1.79459
1.79501
1.797
1.80013
1.80147
1.80118
1.80022
1.79817
1.79475
1.79238
1.79145
1.78959
1.78785
1.78711
1.78698
1.78744
1.78895
1.79029
1.79065
1.79065
1.79082
1.79077
1.7902
1.78891
1.78726
1.78574
1.78434
1.78298
1.78167
1.78039
1
1
1
1
1
1
1
1
1
1
1
1
1
1
1
1
1
1
1
1
1
1
1
0.999709
1.00175
1.01905
1.12352
1.27124
1.43081
1.57728
1.67066
1.77175
1.80177
1.81059
1.8172
1.8163
1.81332
1.80807
1.79784
1.78865
1.78788
1.7906
1.79421
1.79842
1.80203
1.8023
1.8002
1.7972
1.79441
1.79319
1.79237
1.79223
1.79398
1.79888
1.80435
1.80651
1.80641
1.80568
1.80512
1.80313
1.79887
1.79544
1.79251
1.7912
1.79123
1.79148
1.79199
1.79322
1.79452
1.79602
1.79847
1.80022
1.80031
1.79927
1.79724
1.7943
1.79091
1.78908
1.7873
1.78587
1
1
1
1
1
1
1
1
1
1
1
1
1
1
1
1
1
1
1
1
1
1
1
1
1
1
0.999948
1.00029
1.01015
1.09258
1.21888
1.37162
1.53143
1.64277
1.75106
1.77237
1.7798
1.78088
1.77612
1.7758
1.78152
1.79093
1.79633
1.80091
1.80294
1.80199
1.80084
1.80016
1.79678
1.79058
1.78888
1.78887
1.7904
1.79348
1.79672
1.8009
1.80384
1.80507
1.80574
1.80601
1.80554
1.8037
1.80111
1.79779
1.79592
1.79559
1.79524
1.79506
1.7951
1.79617
1.79849
1.80081
1.80164
1.80113
1.79951
1.79789
1.79683
1.79509
1.79326
1.79227
1
1
1
1
1
1
1
1
1
1
1
1
1
1
1
1
1
1
1
1
1
1
1
1
1
1
1
1
1
0.999999
0.999906
1.00616
1.07466
1.19098
1.35826
1.5094
1.62782
1.72685
1.74959
1.76671
1.77886
1.78472
1.78889
1.79092
1.7931
1.7935
1.79328
1.79342
1.79326
1.79263
1.79156
1.79014
1.78852
1.78774
1.78878
1.79061
1.79134
1.79258
1.79552
1.79973
1.80189
1.8021
1.80259
1.80358
1.80338
1.8019
1.79909
1.79599
1.79489
1.79519
1.79664
1.79756
1.79762
1.79731
1.79692
1.79732
1.79877
1.79914
1.79905
1.7986
1
1
1
1
1
1
1
1
1
1
1
1
1
1
1
1
1
1
1
1
1
1
1
1
1
1
1
1
1
1
1
1
0.999999
0.99991
1.00654
1.06873
1.16281
1.3205
1.48811
1.62903
1.71966
1.72953
1.741
1.74851
1.7547
1.76132
1.77082
1.78147
1.78769
1.78896
1.78896
1.78894
1.79031
1.79063
1.78663
1.78137
1.78023
1.7806
1.78301
1.78585
1.78981
1.79451
1.7979
1.80016
1.80176
1.80221
1.80154
1.79949
1.79676
1.79448
1.79373
1.79387
1.79365
1.79359
1.79372
1.79445
1.79599
1.79877
1.80066
1.80107
1
1
1
1
1
1
1
1
1
1
1
1
1
1
1
1
1
1
1
1
1
1
1
1
1
1
1
1
1
1
1
1
1
1
1
0.999999
0.999903
1.00576
1.06218
1.16983
1.34907
1.50319
1.63402
1.70564
1.72387
1.73492
1.74376
1.75377
1.76703
1.77862
1.78152
1.78296
1.78522
1.78743
1.7879
1.78567
1.77976
1.77472
1.77414
1.77613
1.77914
1.78138
1.78364
1.78749
1.79235
1.79531
1.79572
1.79502
1.79503
1.79576
1.79577
1.79463
1.79214
1.79005
1.7898
1.79102
1.79385
1.79635
1.79777
1.79944
1
1
1
1
1
1
1
1
1
1
1
1
1
1
1
1
1
1
1
1
1
1
1
1
1
1
1
1
1
1
1
1
1
1
1
1
0.999999
1
0.999958
1.00012
1.01191
1.076
1.18581
1.35751
1.52577
1.67587
1.70572
1.71102
1.72263
1.73801
1.74837
1.75638
1.76716
1.7778
1.77989
1.77783
1.77587
1.77713
1.77818
1.77802
1.7757
1.77334
1.77328
1.77485
1.77747
1.77933
1.78218
1.78465
1.78722
1.79005
1.79238
1.79292
1.79257
1.79119
1.78949
1.78942
1.79066
1.79239
1.79341
1.79473
1
1
1
1
1
1
1
1
1
1
1
1
1
1
1
1
1
1
1
1
1
1
1
1
1
1
1
1
1
1
1
1
1
1
1
1
1
1
1
0.999999
1
0.999971
1.0005
1.01793
1.08859
1.25241
1.42262
1.55938
1.66576
1.70743
1.71729
1.72593
1.731
1.74442
1.76141
1.76825
1.77019
1.77261
1.77619
1.78077
1.78083
1.7782
1.77245
1.76824
1.76763
1.76918
1.77029
1.77161
1.77372
1.77889
1.78558
1.78774
1.78776
1.78693
1.78694
1.78832
1.78984
1.78995
1.78944
1.78934
1
1
1
1
1
1
1
1
1
1
1
1
1
1
1
1
1
1
1
1
1
1
1
1
1
1
1
1
1
1
1
1
1
1
1
1
1
1
1
1
1
1
0.999998
1.00002
1.00002
1.00301
1.04295
1.12175
1.28656
1.47078
1.65897
1.71481
1.71097
1.71598
1.72782
1.7361
1.74122
1.74993
1.76268
1.77241
1.77317
1.77026
1.77015
1.77152
1.77156
1.76998
1.76588
1.76386
1.76429
1.76868
1.77322
1.7754
1.77697
1.77843
1.78081
1.78342
1.78558
1.78632
1.78662
1.78647
1
1
1
1
1
1
1
1
1
1
1
1
1
1
1
1
1
1
1
1
1
1
1
1
1
1
1
1
1
1
1
1
1
1
1
1
1
1
1
1
1
1
1
1
1
1
1.00001
1.00022
1.00868
1.0676
1.23729
1.42312
1.55881
1.65692
1.71451
1.72244
1.72734
1.7273
1.73566
1.74951
1.7571
1.75996
1.76385
1.76814
1.77279
1.77413
1.77234
1.76854
1.76613
1.76546
1.76569
1.76703
1.76755
1.76849
1.77039
1.77446
1.7786
1.77964
1.77975
1.78071
1
1
1
1
1
1
1
1
1
1
1
1
1
1
1
1
1
1
1
1
1
1
1
1
1
1
1
1
1
1
1
1
1
1
1
1
1
1
1
1
1
1
1
1
1
1
1
0.999999
0.99999
1.00006
1.0031
1.04489
1.1359
1.29605
1.48468
1.67875
1.73635
1.73039
1.73463
1.73616
1.73649
1.73554
1.73758
1.74901
1.76242
1.76824
1.76599
1.76309
1.76373
1.76738
1.76954
1.76863
1.76446
1.76274
1.76307
1.76567
1.76874
1.77016
1.77112
1.7736
1
1
1
1
1
1
1
1
1
1
1
1
1
1
1
1
1
1
1
1
1
1
1
1
1
1
1
1
1
1
1
1
1
1
1
1
1
1
1
1
1
1
1
1
1
1
1
1
1
1
0.999997
1.00004
1.00062
1.01269
1.08256
1.29552
1.50702
1.64208
1.69981
1.73201
1.74401
1.74128
1.7339
1.73706
1.74431
1.75168
1.7531
1.75384
1.75846
1.76569
1.77013
1.76923
1.76669
1.76516
1.76392
1.76349
1.76385
1.76454
1.76524
1.7675
1
1
1
1
1
1
1
1
1
1
1
1
1
1
1
1
1
1
1
1
1
1
1
1
1
1
1
1
1
1
1
1
1
1
1
1
1
1
1
1
1
1
1
1
1
1
1
1
1
1
1
1
1
0.999988
1.00028
1.01103
1.1114
1.25637
1.41313
1.57965
1.72117
1.75383
1.7484
1.75644
1.75307
1.74653
1.74311
1.73997
1.74284
1.75312
1.76256
1.7637
1.76171
1.76027
1.76131
1.76328
1.76607
1.76591
1.76454
1.76457
1
1
1
1
1
1
1
1
1
1
1
1
1
1
1
1
1
1
1
1
1
1
1
1
1
1
1
1
1
1
1
1
1
1
1
1
1
1
1
1
1
1
1
1
1
1
1
1
1
1
1
1
1
0.999999
1
0.999988
1.00063
1.00593
1.05557
1.18526
1.43176
1.6205
1.71457
1.74171
1.75193
1.75508
1.75522
1.75061
1.74963
1.75311
1.75339
1.75302
1.75062
1.74831
1.75272
1.7619
1.76542
1.76481
1.76448
1.76487
1
1
1
1
1
1
1
1
1
1
1
1
1
1
1
1
1
1
1
1
1
1
1
1
1
1
1
1
1
1
1
1
1
1
1
1
1
1
1
1
1
1
1
1
1
1
1
1
1
1
1
1
1
1
1
0.999999
1
0.999992
1.00015
1.00307
1.06403
1.2822
1.47704
1.5796
1.68597
1.75149
1.76506
1.76452
1.77009
1.77327
1.76694
1.75537
1.74638
1.74433
1.74778
1.75532
1.75929
1.75993
1.76016
1.76165
1
1
1
1
1
1
1
1
1
1
1
1
1
1
1
1
1
1
1
1
1
1
1
1
1
1
1
1
1
1
1
1
1
1
1
1
1
1
1
1
1
1
1
1
1
1
1
1
1
1
1
1
1
1
1
1
1
0.999999
0.999999
0.999994
1.00049
1.01075
1.08471
1.24901
1.43957
1.62458
1.69573
1.73787
1.76437
1.7663
1.76394
1.75914
1.75568
1.7559
1.75662
1.75842
1.75768
1.75565
1.75416
1.75411
1
1
1
1
1
1
1
1
1
1
1
1
1
1
1
1
1
1
1
1
1
1
1
1
1
1
1
1
1
1
1
1
1
1
1
1
1
1
1
1
1
1
1
1
1
1
1
1
1
1
1
1
1
1
1
1
1
1
1
0.999999
1
0.999993
1.00065
1.00878
1.06776
1.29
1.55648
1.65795
1.69826
1.73431
1.75099
1.75313
1.75764
1.76548
1.77049
1.77119
1.76904
1.76303
1.75685
1.75296
1
1
1
1
1
1
1
1
1
1
1
1
1
1
1
1
1
1
1
1
1
1
1
1
1
1
1
1
1
1
1
1
1
1
1
1
1
1
1
1
1
1
1
1
1
1
1
1
1
1
1
1
1
1
1
1
1
1
1
1
1
0.999999
1
0.999995
1.00067
1.01656
1.15646
1.40559
1.56763
1.67957
1.71146
1.72609
1.73517
1.7474
1.75898
1.76411
1.76539
1.76317
1.76089
1.76183
1
1
1
1
1
1
1
1
1
1
1
1
1
1
1
1
1
1
1
1
1
1
1
1
1
1
1
1
1
1
1
1
1
1
1
1
1
1
1
1
1
1
1
1
1
1
1
1
1
1
1
1
1
1
1
1
1
1
1
1
1
1
1
1
0.999998
1.00003
1.00401
1.05513
1.18264
1.40957
1.64779
1.74629
1.74313
1.74306
1.74158
1.74321
1.74831
1.75336
1.76287
1.77001
1
1
1
1
1
1
1
1
1
1
1
1
1
1
1
1
1
1
1
1
1
1
1
1
1
1
1
1
1
1
1
1
1
1
1
1
1
1
1
1
1
1
1
1
1
1
1
1
1
1
1
1
1
1
1
1
1
1
1
1
1
1
1
1
1
1
0.999997
1.00029
1.00577
1.06717
1.29952
1.57093
1.69729
1.7587
1.75596
1.74845
1.74015
1.73877
1.74615
1.76076
1
1
1
1
1
1
1
1
1
1
1
1
1
1
1
1
1
1
1
1
1
1
1
1
1
1
1
1
1
1
1
1
1
1
1
1
1
1
1
1
1
1
1
1
1
1
1
1
1
1
1
1
1
1
1
1
1
1
1
1
1
1
1
1
1
1
1
1
0.999999
1.00082
1.02132
1.20157
1.46334
1.63317
1.72839
1.74786
1.75485
1.75153
1.74967
1.75271
1
1
1
1
1
1
1
1
1
1
1
1
1
1
1
1
1
1
1
1
1
1
1
1
1
1
1
1
1
1
1
1
1
1
1
1
1
1
1
1
1
1
1
1
1
1
1
1
1
1
1
1
1
1
1
1
1
1
1
1
1
1
1
1
1
1
1
1
1
0.999999
1.0001
1.00886
1.11188
1.30828
1.52391
1.70207
1.76707
1.76708
1.7675
1.76396
1
1
1
1
1
1
1
1
1
1
1
1
1
1
1
1
1
1
1
1
1
1
1
1
1
1
1
1
1
1
1
1
1
1
1
1
1
1
1
1
1
1
1
1
1
1
1
1
1
1
1
1
1
1
1
1
1
1
1
1
1
1
1
1
1
1
1
1
1
1
1
1.00003
1.00208
1.02998
1.17659
1.4478
1.63865
1.73338
1.76477
1.76136
1
1
1
1
1
1
1
1
1
1
1
1
1
1
1
1
1
1
1
1
1
1
1
1
1
1
1
1
1
1
1
1
1
1
1
1
1
1
1
1
1
1
1
1
1
1
1
1
1
1
1
1
1
1
1
1
1
1
1
1
1
1
1
1
1
1
1
1
1
1
1
1
0.999998
1.00023
1.00596
1.09252
1.39656
1.66113
1.70822
1.72177
1
1
1
1
1
1
1
1
1
1
1
1
1
1
1
1
1
1
1
1
1
1
1
1
1
1
1
1
1
1
1
1
1
1
1
1
1
1
1
1
1
1
1
1
1
1
1
1
1
1
1
1
1
1
1
1
1
1
1
1
1
1
1
1
1
1
1
1
1
1
1
1
1
0.999999
1.00001
1.0032
1.07392
1.30849
1.54883
1.70997
1
1
1
1
1
1
1
1
1
1
1
1
1
1
1
1
1
1
1
1
1
1
1
1
1
1
1
1
1
1
1
1
1
1
1
1
1
1
1
1
1
1
1
1
1
1
1
1
1
1
1
1
1
1
1
1
1
1
1
1
1
1
1
1
1
1
1
1
1
1
1
1
1
1
1
1.00001
1.00155
1.03373
1.17985
1.59764
1
1
1
1
1
1
1
1
1
1
1
1
1
1
1
1
1
1
1
1
1
1
1
1
1
1
1
1
1
1
1
1
1
1
1
1
1
1
1
1
1
1
1
1
1
1
1
1
1
1
1
1
1
1
1
1
1
1
1
1
1
1
1
1
1
1
1
1
1
1
1
1
1
1
1
1
1
1.00042
1.00911
1.35272
1
1
1
1
1
1
1
1
1
1
1
1
1
1
1
1
1
1
1
1
1
1
1
1
1
1
1
1
1
1
1
1
1
1
1
1
1
1
1
1
1
1
1
1
1
1
1
1
1
1
1
1
1
1
1
1
1
1
1
1
1
1
1
1
1
1
1
1
1
1
1
1
1
1
1
1
1
1
1.00015
1.08137
1
1
1
1
1
1
1
1
1
1
1
1
1
1
1
1
1
1
1
1
1
1
1
1
1
1
1
1
1
1
1
1
1
1
1
1
1
1
1
1
1
1
1
1
1
1
1
1
1
1
1
1
1
1
1
1
1
1
1
1
1
1
1
1
1
1
1
1
1
1
1
1
1
1
1
1
1
1
1
1.00681
1
1
1
1
1
1
1
1
1
1
1
1
1
1
1
1
1
1
1
1
1
1
1
1
1
1
1
1
1
1
1
1
1
1
1
1
1
1
1
1
1
1
1
1
1
1
1
1
1
1
1
1
1
1
1
1
1
1
1
1
1
1
1
1
1
1
1
1
1
1
1
1
1
1
1
1
1
1
1
1.00031
1
1
1
1
1
1
1
1
1
1
1
1
1
1
1
1
1
1
1
1
1
1
1
1
1
1
1
1
1
1
1
1
1
1
1
1
1
1
1
1
1
1
1
1
1
1
1
1
1
1
1
1
1
1
1
1
1
1
1
1
1
1
1
1
1
1
1
1
1
1
1
1
1
1
1
1
1
1
1
1.00001
1
1
1
1
1
1
1
1
1
1
1
1
1
1
1
1
1
1
1
1
1
1
1
1
1
1
1
1
1
1
1
1
1
1
1
1
1
1
1
1
1
1
1
1
1
1
1
1
1
1
1
1
1
1
1
1
1
1
1
1
1
1
1
1
1
1
1
1
1
1
1
1
1
1
1
1
1
1
1
1
1
1
1
1
1
1
1
1
1
1
1
1
1
1
1
1
1
1
1
1
1
1
1
1
1
1
1
1
1
1
1
1
1
1
1
1
1
1
1
1
1
1
1
1
1
1
1
1
1
1
1
1
1
1
1
1
1
1
1
1
1
1
1
1
1
1
1
1
1
1
1
1
1
1
1
1
1
1
1
1
1
1
1
1
1
1
1
1
1
1
1
1
1
1
1
1
1
1
1
1
1
1
1
1
1
1
1
1
1
1
1
1
1
1
1
1
1
1
1
1
1
1
1
1
1
1
1
1
1
1
1
1
1
1
1
1
1
1
1
1
1
1
1
1
1
1
1
1
1
1
1
1
1
1
1
1
1
1
1
1
1
1
1
1
1
1
1
1
1
1
1
1
1
1
1
1
1
1
1
1
1
1
1
1
1
1
1
1
1
1
1
1
1
1
1
1
1
1
1
1
1
1
1
1
1
1
1
1
1
1
1
1
1
1
1
1
1
1
1
1
1
1
1
1
1
1
1
1
1
1
1
1
1
1
1
1
1
1
1
1
)
;

boundaryField
{
    inlet
    {
        type            fixedValue;
        value           uniform 1;
    }
    outlet
    {
        type            zeroGradient;
    }
    bottom
    {
        type            symmetryPlane;
    }
    top
    {
        type            symmetryPlane;
    }
    obstacle
    {
        type            zeroGradient;
    }
    defaultFaces
    {
        type            empty;
    }
}


// ************************************************************************* //
