/*--------------------------------*- C++ -*----------------------------------*\
| =========                 |                                                 |
| \\      /  F ield         | OpenFOAM: The Open Source CFD Toolbox           |
|  \\    /   O peration     | Version:  2206                                  |
|   \\  /    A nd           | Website:  www.openfoam.com                      |
|    \\/     M anipulation  |                                                 |
\*---------------------------------------------------------------------------*/
FoamFile
{
    version     2.0;
    format      ascii;
    arch        "LSB;label=32;scalar=64";
    class       volScalarField;
    location    "0.06";
    object      rho;
}
// * * * * * * * * * * * * * * * * * * * * * * * * * * * * * * * * * * * * * //

dimensions      [1 -3 0 0 0 0 0];

internalField   nonuniform List<scalar> 
75
(
1.40001
1.40001
1.40001
1.40001
1.40001
1.40001
1.40001
1.40001
1.40001
1.40001
1.40001
1.40001
1.40001
1.40001
1.40001
1.40001
1.40001
1.40001
1.40001
1.40001
1.40001
1.40001
1.40001
1.40001
1.40001
1.65423
2.05362
2.5416
3.10895
3.74836
4.41867
5.15867
5.86754
6.61788
7.23672
1.4
1.39997
1.39993
1.39894
1.40682
1.5054
1.68417
2.09536
2.62712
3.87361
1.40001
1.40001
1.40001
1.40002
1.39999
1.40001
1.39619
1.40437
1.40717
1.89118
1.40001
1.40001
1.40001
1.40001
1.4
1.4
1.39976
1.39978
1.39975
1.41178
1.40001
1.40001
1.40001
1.40001
1.4
1.4
1.40001
1.39998
1.39993
1.39997
)
;

boundaryField
{
    inlet
    {
        type            calculated;
        value           uniform 1.40001;
    }
    outlet
    {
        type            calculated;
        value           nonuniform List<scalar> 5(7.23672 3.87361 1.89118 1.41178 1.39997);
    }
    bottom
    {
        type            symmetryPlane;
    }
    top
    {
        type            symmetryPlane;
    }
    obstacle
    {
        type            calculated;
        value           nonuniform List<scalar> 10(1.65423 2.05362 2.5416 3.10895 3.74836 4.41867 5.15867 5.86754 6.61788 7.23672);
    }
    defaultFaces
    {
        type            empty;
    }
}


// ************************************************************************* //
