/*--------------------------------*- C++ -*----------------------------------*\
| =========                 |                                                 |
| \\      /  F ield         | OpenFOAM: The Open Source CFD Toolbox           |
|  \\    /   O peration     | Version:  2206                                  |
|   \\  /    A nd           | Website:  www.openfoam.com                      |
|    \\/     M anipulation  |                                                 |
\*---------------------------------------------------------------------------*/
FoamFile
{
    version     2.0;
    format      ascii;
    arch        "LSB;label=32;scalar=64";
    class       volScalarField;
    location    "0.08";
    object      T;
}
// * * * * * * * * * * * * * * * * * * * * * * * * * * * * * * * * * * * * * //

dimensions      [0 0 0 1 0 0 0];

internalField   nonuniform List<scalar> 
75
(
1
1
1
1
1
1
1
1
1
1
1
1
1
1
1
1
1
1
1
1
1
1
1
1
1
1.0737
1.17663
1.29028
1.40789
1.53202
1.65079
1.77284
1.87082
1.92086
1.90211
0.999618
1.0004
1.00861
1.04014
1.09662
1.19967
1.30251
1.41907
1.53123
1.62856
0.999996
0.999991
0.999987
0.999983
0.999798
1.00201
1.01263
1.0729
1.21171
1.57492
1
1
0.999999
0.999993
0.999957
0.999983
0.999963
0.999845
1.00787
1.27266
1
1
1
1
0.999997
0.999995
0.999964
0.999955
0.999991
1.03056
)
;

boundaryField
{
    inlet
    {
        type            fixedValue;
        value           uniform 1;
    }
    outlet
    {
        type            zeroGradient;
    }
    bottom
    {
        type            symmetryPlane;
    }
    top
    {
        type            symmetryPlane;
    }
    obstacle
    {
        type            zeroGradient;
    }
    defaultFaces
    {
        type            empty;
    }
}


// ************************************************************************* //
