/*--------------------------------*- C++ -*----------------------------------*\
| =========                 |                                                 |
| \\      /  F ield         | OpenFOAM: The Open Source CFD Toolbox           |
|  \\    /   O peration     | Version:  2206                                  |
|   \\  /    A nd           | Website:  www.openfoam.com                      |
|    \\/     M anipulation  |                                                 |
\*---------------------------------------------------------------------------*/
FoamFile
{
    version     2.0;
    format      ascii;
    arch        "LSB;label=32;scalar=64";
    class       volScalarField;
    location    "0.16";
    object      T;
}
// * * * * * * * * * * * * * * * * * * * * * * * * * * * * * * * * * * * * * //

dimensions      [0 0 0 1 0 0 0];

internalField   nonuniform List<scalar> 
4800
(
1
1
1
1
1
1
1
1
1
1
1
1
1
1
1
1
1
1
1
1
1
1
1
1
1
1
1
1
1
1
1
1
1
1
1
1
1
1
1
1
1
1
1
1
1
1
1
1
1
1
1
1
1
1
1
1
1
1
1
1
1
1
1
1
1
1
1
1
1
1
1
1
1
1
1
1
1
1
1
1
1
1
1
1
1
1
1
1
1
1
1
1
1
1
1
1
1
1
1
1
1
1
1
1
1
1
1
1
1
1
1
1
1
1
1
1
1
1
1
1
1
1
1
1
1
1
1
1
1
1
1
1
1
1
1
1
1
1
1
1
1
1
1
1
1
1
1
1
1
1
1
1
1
1
1
1
1
1
1
1
1
1
1
1
1
1
1
1
1
1
1
1
1
1
1
1
1
1
1
1
1
1
1
1
1
1
1
1
1
1
1
1
1
1
1
1
1
1
1
1
1
1
1
1
1
1
1
1
1
1
1
1
1
1
1
1
1
1
1
1
1
1
1
1
1
1
1
1
1
1
1
1
1
1
1
1
1
1
1
1
1
1
1
1
1
1
1
1
1
1
1
1
1
1
1
1
1
1
1
1
1
1
1
1
1
1
1
1
1
1
1
1
1
1
1
1
1
1
1
1
1
1
1
1
1
1
1
1
1
1
1
1
1
1
1
1
1
1
1
1
1
1
1
1
1
1
1
1
1
1
1
1
1
1
1
1
1
1
1
1
1
1
1
1
1
1
1
1
1
1
1
1
1
1
1
1
1
1
1
1
1
1
1
1
1
1
1
1
1
1
1
1
1
1
1
1
1
1
1
1
1
1
1
1
1
1
1
1
1
1
1
1
1
1
1
1
1
1
1
1
1
1
1
1
1
1
1
1
1
1
1
1
1
1
1
1
1
1
1
1
1
1
1
1
1
1
1
1
1
1
1
1
1
1
1
1
1
1
1
1
1
1
1
1
1
1
1
1
1
1
1
1
1
1
1
1
1
1
1
1
1
1
1
1
1
1
1
1
1
1
1
1
1
1
1
1
1
1
1
1
1
1
1
1
1
1
1
1
1
1
1
1
1
1
1
1
1
1
1
1
1
1
1
1
1
1
1
1
1
1
1
1
1
1
1
1
1
1
1
1
1
1
1
1
1
1
1
1
1
1
1
1
1
1
1
1
1
1
1
1
1
1
1
1
1
1
1
1
1
1
1
1
1
1
1
1
1
1
1
1
1
1
1
1
1
1
1
1
1
1
1
1
1
1
1
1
1
1
1
1
1
1
1
1
1
1
1
1
1
1
1
1
1
1
1
1
1
1
1
1
1
1
1
1
1
1
1
1
1
1
1
1
1
1
1
1
1
1
1
1
1
1
1
1
1
1
1
1
1
1
1
1
1
1
1
1
1
1
1
1
1
1
1
1
1
1
1
1
1
1
1
1
1
1
1
1
1
1
1
1
1
1
1
1
1
1
1
1
1
1
1
1
1
1
1
1
1
1
1
1
1
1
1
1
1
1
1
1
1
1
1
1
1
1
1
1
1
1
1
1
1
1
1
1
1
1
1
1
1
1
1
1
1
1
1
1
1
1
1
1
1
1
1
1
1
1
1
1
1
1
1
1
1
1
1
1
1
1
1
1
1
1
1
1
1
1
1
1
1
1
1
1
1
1
1
1
1
1
1
1
1
1
1
1
1
1
1
1
1
1
1
1
1
1
1
1
1
1
1
1
1
1
1
1
1
1
1
1
1
1
1
1
1
1
1
1
1
1
1
1
1
1
1
1
1
1
1
1
1
1
1
1
1
1
1
1
1
1
1
1
1
1
1
1
1
1
1
1
1
1
1
1
1
1
1
1
1
1
1
1
1
1
1
1
1
1
1
1
1
1
1
1
1
1
1
1
1
1
1
1
1
1
1
1
1
1
1
1
1
1
1
1
1
1
1
1
1
1
1
1
1
1
1
1
1
1
1
1
1
1
1
1
1
1
1
1
1
1
1
1
1
1
1
1
1
1
1
1
1
1
1
1
1
1
1
1
1
1
1
1
1
1
1
1
1
1
1
1
1
1
1
1
1
1
1
1
1
1
1
1
1
1
1
1
1
1
1
1
1
1
1
1
1
1
1
1
1
1
1
1
1
1
1
1
1
1
1
1
1
1
1
1
1
1
1
1
1
1
1
1
1
1
1
1
1
1
1
1
1
1
1
1
1
1
1
1
1
1
1
1
1
1
1
1
1
1
1
1
1
1
1
1
1
1
1
1
1
1
1
1
1
1
1
1
1
1
1
1
1
1
1
1
1
1
1
1
1
1
1
1
1
1
1
1
1
1
1
1
1
1
1
1
1
1
1
1
1
1
1
1
1
1
1
1
1
1
1
1
1
1
1
1
1
1
1
1
1
1
1
1
1
1
1
1
1
1
1
1
1
1
1
1
1
1
1
1
1
1
1
1
1
1
1
1
1
1
1
1
1
1
1
1
1
1
1
1
1
1
1
1
1
1
1
1
1
1
1
1
1
1
1
1
1
1
1
1
1
1
1
1
1
1
1
1
1
1
1
1
1
1
1
1
1
1
1
1
1
1
1
1
1
1
1
1
1
1
1
1
1
1
1
1
1
1
1
1
1
1
1
1
1
1
1
1
1
1
1
1
1
1
1
1
1
1
1
1
1
1
1
1
1
1
1
1
1
1
1
1
1
1
1
1
1
1
1
1
1
1
1
1
1
1
1
1
1
1
1
1
1
1
1
1
1
1
1
1
1
1
1
1
1
1
1
1
1
1
1
1
1
1
1
1
1
1
1
1
1
1
1
1
1
1
1
1
1
1
1
1
1
1
1
1
1
1
1
1
1
1
1
1
1
1
1
1
1
1
1
1
1
1
1
1
1
1
1
1
1
1
1
1
1
1
1
1
1
1
1
1
1
1
1
1
1
1
1
1
1
1
1
1
1
1
1
1
1
1
1
1
1
1
1
1
1
1
1
1
1
1
1
1
1
1
1
1
1
1
1
1
1
1
1
1
1
1
1
1
1
1
1
1
1
1
1
1
1
1
1
1
1
1
1
1
1
1
1
1
1
1
1
1
1
1
1
1
1
1
1
1
1
1
1
1
1
1
1
1
1
1
1
1
1
1
1
1
1
1
1
1
1
1
1
1
1
1
1
1
1
1
1
1
1
1
1
1
1
1
1
1
1
1
1
1
1
1
1
1
1
1
1
1
1
1
1
1
1
1
1
1
1
1
1
1
1
1
1
1
1
1
1
1
1
1
1
1
1
1
1
1
1
1
1
1
1
1
1
1
1
1
1
1
1
1
1
1
1
1
1
1
1
1
1
1
1
1
1
1
1
1
1
1
1
1
1
1
1
1
1
1
1
1
1
1
1
1
1
1
1
1
1
1
1
1
1
1
1
1
1
1
1
1
1
1
1
1
1
1
1
1
1
1
1
1
1
1
1
1
1
1
1
1
1
1
1
1
1
1
1
1
1
1
1
1
1
1
1
1
1
1
1
1
1
1
1
1
1
1
1
1
1
1
1
1
1
1
1
1
1
1
1
1
1
1
1
1
1
1
1
1
1
1
1
1
1
1
1
1
1
1
1
1
1
1
1
1
1
1
1
1
1
1
1.0745
1.16687
1.26108
1.35321
1.42447
1.48738
1.53691
1.56332
1.57534
1.56765
1.54835
1.51606
1.47563
1.44809
1.44048
1.43386
1.4305
1.43204
1.43593
1.44012
1.4445
1.44761
1.44944
1.45114
1.45178
1.45242
1.45342
1.45421
1.4548
1.45478
1.45465
1.45432
1.45387
1.45353
1.4535
1.4536
1.45383
1.4541
1.45429
1.45453
1.45515
1.4558
1.4562
1.45652
1.45684
1.45698
1.45706
1.4571
1.4571
1.45715
1.45725
1.45744
1.45755
1.45758
1.4576
1.45757
1.45742
1.45739
1.4574
1.45746
1.4576
1.4579
1.45822
1.45833
1.45833
1.45827
1.45808
1.45786
1.45782
1.45789
1.45807
1.45834
1.45865
1.45878
1.45876
1.45866
1.45837
1.45774
1.45695
1.45517
1.00115
1.01125
1.02991
1.06955
1.13062
1.19201
1.25851
1.31536
1.36989
1.40209
1.4302
1.45985
1.46815
1.47195
1.47117
1.46816
1.46047
1.45466
1.45105
1.44706
1.4461
1.44698
1.44834
1.45061
1.45278
1.45428
1.45492
1.45513
1.45504
1.45512
1.45557
1.45642
1.4571
1.45721
1.45722
1.45712
1.45672
1.45621
1.45619
1.45639
1.45694
1.4572
1.45717
1.45706
1.45705
1.45721
1.45735
1.4574
1.45743
1.45748
1.45756
1.45775
1.45793
1.45802
1.45807
1.45805
1.45796
1.45791
1.45792
1.45798
1.45813
1.45843
1.45872
1.45878
1.45878
1.45872
1.45855
1.45838
1.45836
1.45844
1.45863
1.45887
1.4591
1.45915
1.4591
1.45896
1.45863
1.45798
1.4572
1.45537
0.999999
1.00001
1.00006
1.00044
1.00239
1.00957
1.03037
1.08218
1.15865
1.27543
1.39239
1.46987
1.49596
1.51
1.50971
1.50455
1.49343
1.47572
1.46061
1.45241
1.4522
1.45278
1.45531
1.45786
1.45939
1.45928
1.45852
1.45801
1.45829
1.45905
1.46045
1.46243
1.46341
1.46337
1.46323
1.46288
1.46204
1.46119
1.46104
1.46113
1.46143
1.46146
1.46124
1.46092
1.46063
1.46052
1.46046
1.46034
1.46019
1.46008
1.46001
1.46011
1.46027
1.46028
1.46027
1.46018
1.45992
1.45976
1.45973
1.45973
1.45983
1.46009
1.46028
1.46028
1.46022
1.46012
1.45995
1.45976
1.45973
1.45979
1.45994
1.46016
1.4603
1.4603
1.46022
1.46003
1.45965
1.45892
1.4581
1.45617
1
1
1
0.999999
1
1
1.00006
1.00072
1.00389
1.02938
1.10611
1.24065
1.35551
1.43894
1.49277
1.48965
1.48759
1.49186
1.48704
1.48054
1.47757
1.47352
1.47133
1.46888
1.46551
1.46292
1.46222
1.46263
1.46383
1.46556
1.46756
1.46924
1.46936
1.46911
1.4688
1.46855
1.46829
1.46807
1.46793
1.46789
1.46786
1.46769
1.46733
1.46695
1.46661
1.46637
1.46617
1.46588
1.46543
1.46511
1.46506
1.46511
1.46511
1.46504
1.46489
1.46459
1.4641
1.46369
1.4635
1.46337
1.46335
1.46344
1.46352
1.46345
1.46326
1.46302
1.46273
1.46246
1.46237
1.46233
1.46233
1.46242
1.46245
1.46239
1.46222
1.46194
1.46148
1.46071
1.45983
1.45779
1
1
1
1
1
1
1
1
0.999998
1.00004
1.00094
1.01065
1.06662
1.16519
1.30448
1.39816
1.47399
1.50698
1.50503
1.50347
1.50043
1.49502
1.48346
1.47772
1.47309
1.46955
1.46868
1.46897
1.46965
1.47146
1.47289
1.4733
1.47302
1.47241
1.47209
1.47199
1.47214
1.4726
1.47258
1.47249
1.47257
1.47272
1.47266
1.47241
1.4721
1.4717
1.47152
1.47122
1.47075
1.47055
1.47064
1.47081
1.47081
1.47069
1.47042
1.46993
1.46926
1.4687
1.46838
1.46816
1.46804
1.46804
1.46805
1.46788
1.46754
1.46717
1.46676
1.46641
1.46623
1.46606
1.46591
1.46585
1.46578
1.46559
1.46531
1.46493
1.46438
1.46355
1.46262
1.46039
1
1
1
1
1
1
1
1
1
1
1
0.999999
1.00034
1.00358
1.03039
1.12075
1.23795
1.35931
1.42389
1.47733
1.48651
1.4858
1.48824
1.48921
1.48593
1.48182
1.47877
1.4761
1.4748
1.47444
1.47417
1.47435
1.47489
1.47491
1.47483
1.47481
1.47491
1.47525
1.47505
1.47474
1.47465
1.47471
1.47472
1.47463
1.47455
1.47436
1.47411
1.47372
1.47347
1.47356
1.47401
1.47438
1.47443
1.47436
1.47405
1.47353
1.47295
1.47257
1.47239
1.47222
1.47215
1.47218
1.47219
1.47199
1.47161
1.47123
1.47078
1.47044
1.47021
1.46994
1.46971
1.46958
1.46942
1.46914
1.46881
1.46839
1.46778
1.46692
1.46596
1.46361
1
1
1
1
1
1
1
1
1
1
1
1
1
0.999997
1.00007
1.00182
1.01251
1.07302
1.1858
1.30808
1.39535
1.44553
1.48573
1.48904
1.48882
1.48743
1.48407
1.47785
1.47553
1.47494
1.47472
1.47511
1.47564
1.47572
1.4754
1.4751
1.47528
1.47616
1.47615
1.47591
1.47553
1.47547
1.47537
1.47538
1.47536
1.47516
1.47485
1.47447
1.47432
1.47447
1.47513
1.47558
1.4756
1.47549
1.47515
1.47465
1.47422
1.47405
1.47402
1.47404
1.47412
1.4743
1.47437
1.47423
1.47394
1.47367
1.47338
1.4732
1.47302
1.47279
1.47258
1.47246
1.47229
1.47203
1.47172
1.47131
1.47073
1.46989
1.46892
1.46653
1
1
1
1
1
1
1
1
1
1
1
1
1
1
1
0.999999
1.00001
1.00065
1.0073
1.038
1.14193
1.25583
1.37219
1.42032
1.44967
1.46503
1.46871
1.47335
1.47677
1.47675
1.47602
1.47489
1.47434
1.47438
1.47474
1.47538
1.47556
1.47634
1.47687
1.47679
1.47669
1.47636
1.47615
1.47599
1.4757
1.47525
1.4748
1.47436
1.47422
1.47438
1.47509
1.47559
1.47558
1.47546
1.47508
1.47459
1.47439
1.47438
1.47446
1.47471
1.47495
1.4751
1.47516
1.47509
1.47492
1.47482
1.47473
1.47463
1.47449
1.47432
1.47421
1.47413
1.47404
1.47384
1.47357
1.47323
1.47274
1.47198
1.47104
1.46868
1
1
1
1
1
1
1
1
1
1
1
1
1
1
1
1
1
1
1
1.00017
1.00393
1.02383
1.09287
1.22025
1.33508
1.41385
1.43709
1.45626
1.46889
1.47257
1.47157
1.46753
1.46604
1.46713
1.46907
1.47068
1.47177
1.47276
1.47387
1.47451
1.47505
1.47565
1.4758
1.47589
1.47575
1.47524
1.47493
1.47464
1.47456
1.4747
1.47516
1.47542
1.4754
1.47526
1.47483
1.47439
1.47431
1.47433
1.47454
1.47498
1.47532
1.47535
1.47534
1.47522
1.47514
1.47518
1.47518
1.4751
1.47496
1.4748
1.47479
1.47487
1.47489
1.47476
1.47449
1.47419
1.47377
1.47309
1.47219
1.4699
1
1
1
1
1
1
1
1
1
1
1
1
1
1
1
1
1
1
1
1
1
1.00007
1.00147
1.01755
1.06695
1.18255
1.30029
1.39428
1.4401
1.45041
1.46165
1.46029
1.45925
1.4606
1.46218
1.46398
1.4651
1.46533
1.46615
1.46754
1.46944
1.47146
1.47268
1.47291
1.47286
1.47282
1.47272
1.47266
1.47278
1.47322
1.4741
1.47455
1.47461
1.47455
1.47429
1.47404
1.47402
1.47406
1.4743
1.47474
1.47511
1.47516
1.47512
1.47498
1.4749
1.4749
1.4749
1.47488
1.47482
1.47478
1.47484
1.47499
1.47502
1.47497
1.47475
1.4745
1.47416
1.47352
1.47262
1.47036
1
1
1
1
1
1
1
1
1
1
1
1
1
1
1
1
1
1
1
1
1
1
0.999999
1.00005
1.00076
1.0104
1.05603
1.14489
1.26745
1.36974
1.43948
1.45421
1.45872
1.46324
1.4614
1.46147
1.462
1.46137
1.46114
1.46154
1.46233
1.4641
1.46623
1.4671
1.46768
1.46825
1.46839
1.46859
1.46914
1.4701
1.47124
1.47197
1.47219
1.47222
1.47213
1.47213
1.47234
1.47281
1.47341
1.47404
1.47439
1.47446
1.47442
1.47428
1.47405
1.47395
1.47404
1.47421
1.47433
1.47447
1.47468
1.47486
1.47492
1.47487
1.47461
1.47439
1.47407
1.47346
1.47257
1.47037
1
1
1
1
1
1
1
1
1
1
1
1
1
1
1
1
1
1
1
1
1
1
1
1
0.999999
1.00002
1.00057
1.00524
1.04312
1.1281
1.254
1.35102
1.42392
1.44979
1.45857
1.46433
1.46567
1.46432
1.46299
1.46228
1.46138
1.46169
1.46286
1.46336
1.46395
1.46477
1.46478
1.46481
1.46525
1.46633
1.4676
1.46831
1.46855
1.46865
1.46866
1.46886
1.46945
1.47029
1.47118
1.47192
1.47234
1.47253
1.47252
1.47247
1.47249
1.47256
1.47284
1.47321
1.47348
1.47375
1.4741
1.47441
1.47447
1.47444
1.47421
1.47393
1.47363
1.47304
1.47217
1.47003
1
1
1
1
1
1
1
1
1
1
1
1
1
1
1
1
1
1
1
1
1
1
1
1
1
1
0.999999
1
1.00044
1.00424
1.0346
1.12643
1.23797
1.33225
1.40412
1.44835
1.45777
1.46108
1.46369
1.46408
1.46381
1.46424
1.46455
1.46453
1.4648
1.46493
1.46459
1.46385
1.46374
1.46425
1.46518
1.46555
1.46554
1.46544
1.46537
1.46558
1.46623
1.46717
1.46821
1.46899
1.46946
1.46977
1.46983
1.46987
1.47
1.47027
1.4708
1.47137
1.47178
1.47218
1.47268
1.47312
1.47337
1.47343
1.47331
1.47309
1.47286
1.47237
1.47156
1.4695
1
1
1
1
1
1
1
1
1
1
1
1
1
1
1
1
1
1
1
1
1
1
1
1
1
1
1
1
1
1
1.00033
1.00438
1.02577
1.11346
1.23306
1.33836
1.39364
1.43413
1.45172
1.45762
1.45964
1.46261
1.46343
1.46338
1.46355
1.46377
1.46357
1.46342
1.4636
1.4643
1.4649
1.46496
1.46475
1.46419
1.46377
1.4638
1.46421
1.465
1.46598
1.46666
1.46702
1.46724
1.46723
1.46723
1.46732
1.46761
1.46828
1.46897
1.46947
1.46999
1.47059
1.4711
1.47154
1.47178
1.47175
1.47161
1.47147
1.47108
1.47036
1.46844
1
1
1
1
1
1
1
1
1
1
1
1
1
1
1
1
1
1
1
1
1
1
1
1
1
1
1
1
1
1
1
1
1.00019
1.00425
1.02476
1.10715
1.2384
1.35504
1.404
1.42762
1.44023
1.44982
1.45505
1.45568
1.45672
1.45801
1.45899
1.46
1.46102
1.46217
1.46328
1.46343
1.46313
1.46245
1.46205
1.46211
1.46255
1.46341
1.46427
1.46484
1.46515
1.46524
1.46523
1.46526
1.46536
1.46559
1.46622
1.46694
1.46744
1.46796
1.46849
1.469
1.46955
1.46988
1.46986
1.46972
1.4696
1.46925
1.46858
1.46682
1
1
1
1
1
1
1
1
1
1
1
1
1
1
1
1
1
1
1
1
1
1
1
1
1
1
1
1
1
1
1
1
1
1.00001
1.00019
1.00432
1.03146
1.11323
1.24302
1.36377
1.42748
1.43923
1.45009
1.44976
1.45144
1.45264
1.45314
1.4543
1.45595
1.45774
1.45946
1.46042
1.46054
1.46041
1.46027
1.46038
1.46086
1.4617
1.46236
1.46301
1.46338
1.46343
1.46348
1.4635
1.46352
1.46366
1.46424
1.46494
1.46547
1.46596
1.46639
1.46695
1.46758
1.46795
1.46794
1.46781
1.46767
1.46734
1.46667
1.46498
1
1
1
1
1
1
1
1
1
1
1
1
1
1
1
1
1
1
1
1
1
1
1
1
1
1
1
1
1
1
1
1
1
1
1
1.00001
1.00032
1.00462
1.03849
1.12717
1.26044
1.37224
1.43487
1.45099
1.45609
1.45816
1.45643
1.45573
1.45651
1.45776
1.45846
1.45855
1.45841
1.45815
1.45815
1.45843
1.45902
1.45982
1.46067
1.46153
1.4619
1.46195
1.46199
1.4619
1.46184
1.46199
1.46259
1.46322
1.46372
1.4641
1.46445
1.46501
1.46561
1.46592
1.46592
1.46583
1.46572
1.46539
1.46473
1.4631
1
1
1
1
1
1
1
1
1
1
1
1
1
1
1
1
1
1
1
1
1
1
1
1
1
1
1
1
1
1
1
1
1
1
1
1
1
1.00001
1.00052
1.006
1.05
1.15089
1.28517
1.38528
1.43778
1.45711
1.45979
1.46059
1.46162
1.46257
1.46259
1.46136
1.46004
1.45936
1.45899
1.45896
1.45917
1.45961
1.46005
1.46048
1.46048
1.46045
1.46046
1.46041
1.46045
1.46078
1.46136
1.46179
1.46217
1.46245
1.46274
1.46325
1.46375
1.46394
1.46394
1.46388
1.4638
1.46348
1.46282
1.46118
1
1
1
1
1
1
1
1
1
1
1
1
1
1
1
1
1
1
1
1
1
1
1
1
1
1
1
1
1
1
1
1
1
1
1
1
1
1
1
1.00002
1.00097
1.00943
1.07152
1.196
1.31612
1.39271
1.43559
1.45416
1.45957
1.46077
1.46211
1.46164
1.4604
1.45974
1.45965
1.45972
1.46008
1.4604
1.46067
1.4606
1.46016
1.45979
1.45976
1.45979
1.4599
1.46025
1.46064
1.46083
1.46109
1.46128
1.46152
1.46194
1.46227
1.46232
1.46229
1.46222
1.46213
1.46179
1.46113
1.45943
1
1
1
1
1
1
1
1
1
1
1
1
1
1
1
1
1
1
1
1
1
1
1
1
1
1
1
1
1
1
1
1
1
1
1
1
1
1
1
1
1
1.00006
1.00228
1.01817
1.09595
1.23934
1.3651
1.41446
1.43472
1.44554
1.45536
1.45593
1.4554
1.45569
1.45666
1.45792
1.459
1.45985
1.46013
1.46005
1.45966
1.45939
1.45937
1.45938
1.4595
1.45984
1.46004
1.46018
1.46051
1.46065
1.46089
1.46125
1.46137
1.46131
1.4611
1.46093
1.46079
1.46041
1.4597
1.4579
1
1
1
1
1
1
1
1
1
1
1
1
1
1
1
1
1
1
1
1
1
1
1
1
1
1
1
1
1
1
1
1
1
1
1
1
1
1
1
1
1
1
1
1.00017
1.00469
1.03699
1.14116
1.28711
1.40206
1.44099
1.4513
1.45303
1.45261
1.45357
1.45464
1.45599
1.45718
1.45821
1.45869
1.45861
1.45848
1.45854
1.4587
1.45875
1.45884
1.45901
1.45917
1.45959
1.46001
1.46024
1.46057
1.46085
1.46088
1.4607
1.4603
1.46006
1.45985
1.45938
1.45859
1.45665
1
1
1
1
1
1
1
1
1
1
1
1
1
1
1
1
1
1
1
1
1
1
1
1
1
1
1
1
1
1
1
1
1
1
1
1
1
1
1
1
1
1
1
1
1.00002
1.00064
1.01088
1.06983
1.20374
1.34003
1.4252
1.45549
1.45699
1.46056
1.46122
1.46062
1.45985
1.45937
1.459
1.45849
1.45847
1.45863
1.45889
1.45887
1.45862
1.45839
1.45836
1.4586
1.45927
1.46003
1.46044
1.46063
1.46058
1.46026
1.45985
1.45967
1.45943
1.45888
1.45802
1.45586
1
1
1
1
1
1
1
1
1
1
1
1
1
1
1
1
1
1
1
1
1
1
1
1
1
1
1
1
1
1
1
1
1
1
1
1
1
1
1
1
1
1
1
1
1
1
1.00011
1.00219
1.02808
1.12731
1.26806
1.38106
1.43466
1.45658
1.46245
1.46345
1.4635
1.46204
1.46068
1.45959
1.4594
1.45966
1.46017
1.46035
1.46004
1.45911
1.45847
1.45849
1.459
1.45967
1.46003
1.46022
1.46021
1.45996
1.45965
1.45953
1.45928
1.45873
1.45788
1.45549
1
1
1
1
1
1
1
1
1
1
1
1
1
1
1
1
1
1
1
1
1
1
1
1
1
1
1
1
1
1
1
1
1
1
1
1
1
1
1
1
1
1
1
1
1
1
1
1.00001
1.00056
1.00774
1.06226
1.20906
1.34881
1.40902
1.43773
1.45324
1.45733
1.45827
1.45872
1.45823
1.45769
1.4582
1.45971
1.46069
1.46055
1.45994
1.45939
1.45931
1.45947
1.45974
1.45996
1.46005
1.46001
1.45973
1.4594
1.45924
1.45897
1.45838
1.45755
1.45514
1
1
1
1
1
1
1
1
1
1
1
1
1
1
1
1
1
1
1
1
1
1
1
1
1
1
1
1
1
1
1
1
1
1
1
1
1
1
1
1
1
1
1
1
1
1
1
1
1
1.00006
1.00267
1.02805
1.1372
1.28533
1.41076
1.4431
1.44956
1.45373
1.45584
1.45583
1.45493
1.45549
1.45685
1.45775
1.4585
1.45918
1.45941
1.45959
1.45976
1.45992
1.45996
1.45996
1.45989
1.45961
1.45918
1.45889
1.4586
1.45805
1.45723
1.45482
1
1
1
1
1
1
1
1
1
1
1
1
1
1
1
1
1
1
1
1
1
1
1
1
1
1
1
1
1
1
1
1
1
1
1
1
1
1
1
1
1
1
1
1
1
1
1
1
1
1
1.00002
1.00055
1.01254
1.07482
1.22476
1.36993
1.4336
1.46082
1.46353
1.46237
1.46004
1.45881
1.45821
1.45708
1.45683
1.45801
1.45906
1.45961
1.45992
1.45995
1.45991
1.45987
1.45977
1.45952
1.45915
1.45876
1.45825
1.45762
1.45692
1.45459
1
1
1
1
1
1
1
1
1
1
1
1
1
1
1
1
1
1
1
1
1
1
1
1
1
1
1
1
1
1
1
1
1
1
1
1
1
1
1
1
1
1
1
1
1
1
1
1
1
1
1
1
1.00018
1.00343
1.04014
1.17825
1.31935
1.41
1.45393
1.46066
1.46468
1.46494
1.46365
1.46068
1.45892
1.45916
1.45978
1.46022
1.46024
1.46011
1.45994
1.45982
1.4597
1.45954
1.45926
1.45883
1.45824
1.45727
1.45633
1.45412
1
1
1
1
1
1
1
1
1
1
1
1
1
1
1
1
1
1
1
1
1
1
1
1
1
1
1
1
1
1
1
1
1
1
1
1
1
1
1
1
1
1
1
1
1
1
1
1
1
1
1
1
1
1.00003
1.0013
1.02121
1.12493
1.27496
1.39311
1.42955
1.45151
1.46212
1.46127
1.45955
1.45988
1.46048
1.46099
1.461
1.46082
1.46054
1.46026
1.46009
1.45994
1.45982
1.45967
1.45932
1.45857
1.4574
1.45619
1.45367
1
1
1
1
1
1
1
1
1
1
1
1
1
1
1
1
1
1
1
1
1
1
1
1
1
1
1
1
1
1
1
1
1
1
1
1
1
1
1
1
1
1
1
1
1
1
1
1
1
1
1
1
1
1
1.00001
1.00051
1.01038
1.07102
1.23146
1.39292
1.43466
1.44852
1.45255
1.45509
1.45723
1.45946
1.46028
1.4604
1.46057
1.46062
1.46044
1.46032
1.46025
1.46014
1.46002
1.45984
1.45933
1.45822
1.45653
1.45358
1
1
1
1
1
1
1
1
1
1
1
1
1
1
1
1
1
1
1
1
1
1
1
1
1
1
1
1
1
1
1
1
1
1
1
1
1
1
1
1
1
1
1
1
1
1
1
1
1
1
1
1
1
1
1
1
1.00014
1.00433
1.04643
1.20207
1.3578
1.43269
1.4562
1.45948
1.46216
1.46187
1.46097
1.46031
1.46059
1.46092
1.46082
1.46062
1.4602
1.45995
1.45991
1.46004
1.45978
1.45883
1.45718
1.45404
1
1
1
1
1
1
1
1
1
1
1
1
1
1
1
1
1
1
1
1
1
1
1
1
1
1
1
1
1
1
1
1
1
1
1
1
1
1
1
1
1
1
1
1
1
1
1
1
1
1
1
1
1
1
1
1
1
1.00006
1.002
1.03726
1.16529
1.31629
1.40724
1.44952
1.46419
1.46305
1.46141
1.46077
1.46139
1.46178
1.46182
1.46145
1.46038
1.45988
1.45967
1.45963
1.45966
1.45915
1.45728
1.46089
1
1
1
1
1
1
1
1
1
1
1
1
1
1
1
1
1
1
1
1
1
1
1
1
1
1
1
1
1
1
1
1
1
1
1
1
1
1
1
1
1
1
1
1
1
1
1
1
1
1
1
1
1
1
1
1
1
1
1.00002
1.00162
1.01963
1.12123
1.29924
1.43043
1.44788
1.45147
1.45487
1.45738
1.46047
1.46187
1.46233
1.46212
1.46073
1.45986
1.45956
1.45941
1.45909
1.4586
1.45743
1.50723
1
1
1
1
1
1
1
1
1
1
1
1
1
1
1
1
1
1
1
1
1
1
1
1
1
1
1
1
1
1
1
1
1
1
1
1
1
1
1
1
1
1
1
1
1
1
1
1
1
1
1
1
1
1
1
1
1
1
1
1.00001
1.00048
1.01441
1.09795
1.28651
1.40066
1.45527
1.46336
1.46014
1.46111
1.46237
1.46299
1.46279
1.46183
1.46105
1.46044
1.45989
1.45925
1.45878
1.46662
1.66041
1
1
1
1
1
1
1
1
1
1
1
1
1
1
1
1
1
1
1
1
1
1
1
1
1
1
1
1
1
1
1
1
1
1
1
1
1
1
1
1
1
1
1
1
1
1
1
1
1
1
1
1
1
1
1
1
1
1
1
1
1
1.00045
1.00828
1.09416
1.26117
1.40034
1.43126
1.44592
1.45642
1.46027
1.4612
1.46125
1.46112
1.4612
1.46147
1.46127
1.46097
1.47475
1.57821
1.84035
1
1
1
1
1
1
1
1
1
1
1
1
1
1
1
1
1
1
1
1
1
1
1
1
1
1
1
1
1
1
1
1
1
1
1
1
1
1
1
1
1
1
1
1
1
1
1
1
1
1
1
1
1
1
1
1
1
1
1
1
1
1
1.0002
1.00847
1.07003
1.23429
1.38927
1.4563
1.4589
1.45569
1.45504
1.45561
1.45771
1.45883
1.46008
1.462
1.48204
1.61177
1.81352
1.91482
1
1
1
1
1
1
1
1
1
1
1
1
1
1
1
1
1
1
1
1
1
1
1
1
1
1
1
1
1
1
1
1
1
1
1
1
1
1
1
1
1
1
1
1
1
1
1
1
1
1
1
1
1
1
1
1
1
1
1
1
1
1
1
1.00019
1.00528
1.05825
1.23168
1.39984
1.45128
1.4598
1.46177
1.46027
1.45917
1.45968
1.46134
1.48946
1.6418
1.83257
1.94226
1.94207
1
1
1
1
1
1
1
1
1
1
1
1
1
1
1
1
1
1
1
1
1
1
1
1
1
1
1
1
1
1
1
1
1
1
1
1
1
1
1
1
1
1
1
1
1
1
1
1
1
1
1
1
1
1
1
1
1
1
1
1
1
1
1
1
1.00012
1.00399
1.06597
1.24147
1.37201
1.43801
1.45986
1.45891
1.45955
1.46396
1.50444
1.6672
1.87255
1.91233
1.9399
1.9396
1
1
1
1
1
1
1
1
1
1
1
1
1
1
1
1
1
1
1
1
1
1
1
1
1
1
1
1
1
1
1
1
1
1
1
1
1
1
1
1
1
1
1
1
1
1
1
1
1
1
1
1
1
1
1
1
1
1
1
1
1
1
1
1
1
1.00011
1.00541
1.05803
1.2275
1.39125
1.44853
1.44311
1.45493
1.52062
1.70265
1.87396
1.94871
1.94142
1.93562
1.93055
1
1
1
1
1
1
1
1
1
1
1
1
1
1
1
1
1
1
1
1
1
1
1
1
1
1
1
1
1
1
1
1
1
1
1
1
1
1
1
1
1
1
1
1
1
1
1
1
1
1
1
1
1
1
1
1
1
1
1
1
1
1
1
1
1
1
1.00013
1.00433
1.06289
1.22649
1.37514
1.47692
1.58215
1.72462
1.84285
1.90734
1.93748
1.93373
1.92688
1.92019
1
1
1
1
1
1
1
1
1
1
1
1
1
1
1
1
1
1
1
1
1
1
1
1
1
1
1
1
1
1
1
1
1
1
1
1
1
1
1
1
1
1
1
1
1
1
1
1
1
1
1
1
1
1
1
1
1
1
1
1
1
1
1
1
1
1
1
1.00011
1.00556
1.0634
1.27899
1.55393
1.78739
1.95018
1.99655
1.97198
1.93524
1.92521
1.92033
1.91412
)
;

boundaryField
{
    inlet
    {
        type            fixedValue;
        value           uniform 1;
    }
    outlet
    {
        type            zeroGradient;
    }
    bottom
    {
        type            symmetryPlane;
    }
    top
    {
        type            symmetryPlane;
    }
    obstacle
    {
        type            zeroGradient;
    }
    defaultFaces
    {
        type            empty;
    }
}


// ************************************************************************* //
