/*--------------------------------*- C++ -*----------------------------------*\
| =========                 |                                                 |
| \\      /  F ield         | OpenFOAM: The Open Source CFD Toolbox           |
|  \\    /   O peration     | Version:  2206                                  |
|   \\  /    A nd           | Website:  www.openfoam.com                      |
|    \\/     M anipulation  |                                                 |
\*---------------------------------------------------------------------------*/
FoamFile
{
    version     2.0;
    format      ascii;
    arch        "LSB;label=32;scalar=64";
    class       volScalarField;
    location    "0.16";
    object      p;
}
// * * * * * * * * * * * * * * * * * * * * * * * * * * * * * * * * * * * * * //

dimensions      [1 -1 -2 0 0 0 0];

internalField   nonuniform List<scalar> 
4800
(
1
1
1
1
1
1
1
1
1
1
1
1
1
1
1
1
1
1
1
1
1
1
1
1
1
1
1
1
1
1
1
1
1
1
1
1
1
1
1
1
1
1
1
1
1
1
1
1
1
1
1
1
1
1
1
1
1
1
1
1
1
1
1
1
1
1
1
1
1
1
1
1
1
1
1
1
1
1
1
1
1
1
1
1
1
1
1
1
1
1
1
1
1
1
1
1
1
1
1
1
1
1
1
1
1
1
1
1
1
1
1
1
1
1
1
1
1
1
1
1
1
1
1
1
1
1
1
1
1
1
1
1
1
1
1
1
1
1
1
1
1
1
1
1
1
1
1
1
1
1
1
1
1
1
1
1
1
1
1
1
1
1
1
1
1
1
1
1
1
1
1
1
1
1
1
1
1
1
1
1
1
1
1
1
1
1
1
1
1
1
1
1
1
1
1
1
1
1
1
1
1
1
1
1
1
1
1
1
1
1
1
1
1
1
1
1
1
1
1
1
1
1
1
1
1
1
1
1
1
1
1
1
1
1
1
1
1
1
1
1
1
1
1
1
1
1
1
1
1
1
1
1
1
1
1
1
1
1
1
1
1
1
1
1
1
1
1
1
1
1
1
1
1
1
1
1
1
1
1
1
1
1
1
1
1
1
1
1
1
1
1
1
1
1
1
1
1
1
1
1
1
1
1
1
1
1
1
1
1
1
1
1
1
1
1
1
1
1
1
1
1
1
1
1
1
1
1
1
1
1
1
1
1
1
1
1
1
1
1
1
1
1
1
1
1
1
1
1
1
1
1
1
1
1
1
1
1
1
1
1
1
1
1
1
1
1
1
1
1
1
1
1
1
1
1
1
1
1
1
1
1
1
1
1
1
1
1
1
1
1
1
1
1
1
1
1
1
1
1
1
1
1
1
1
1
1
1
1
1
1
1
1
1
1
1
1
1
1
1
1
1
1
1
1
1
1
1
1
1
1
1
1
1
1
1
1
1
1
1
1
1
1
1
1
1
1
1
1
1
1
1
1
1
1
1
1
1
1
1
1
1
1
1
1
1
1
1
1
1
1
1
1
1
1
1
1
1
1
1
1
1
1
1
1
1
1
1
1
1
1
1
1
1
1
1
1
1
1
1
1
1
1
1
1
1
1
1
1
1
1
1
1
1
1
1
1
1
1
1
1
1
1
1
1
1
1
1
1
1
1
1
1
1
1
1
1
1
1
1
1
1
1
1
1
1
1
1
1
1
1
1
1
1
1
1
1
1
1
1
1
1
1
1
1
1
1
1
1
1
1
1
1
1
1
1
1
1
1
1
1
1
1
1
1
1
1
1
1
1
1
1
1
1
1
1
1
1
1
1
1
1
1
1
1
1
1
1
1
1
1
1
1
1
1
1
1
1
1
1
1
1
1
1
1
1
1
1
1
1
1
1
1
1
1
1
1
1
1
1
1
1
1
1
1
1
1
1
1
1
1
1
1
1
1
1
1
1
1
1
1
1
1
1
1
1
1
1
1
1
1
1
1
1
1
1
1
1
1
1
1
1
1
1
1
1
1
1
1
1
1
1
1
1
1
1
1
1
1
1
1
1
1
1
1
1
1
1
1
1
1
1
1
1
1
1
1
1
1
1
1
1
1
1
1
1
1
1
1
1
1
1
1
1
1
1
1
1
1
1
1
1
1
1
1
1
1
1
1
1
1
1
1
1
1
1
1
1
1
1
1
1
1
1
1
1
1
1
1
1
1
1
1
1
1
1
1
1
1
1
1
1
1
1
1
1
1
1
1
1
1
1
1
1
1
1
1
1
1
1
1
1
1
1
1
1
1
1
1
1
1
1
1
1
1
1
1
1
1
1
1
1
1
1
1
1
1
1
1
1
1
1
1
1
1
1
1
1
1
1
1
1
1
1
1
1
1
1
1
1
1
1
1
1
1
1
1
1
1
1
1
1
1
1
1
1
1
1
1
1
1
1
1
1
1
1
1
1
1
1
1
1
1
1
1
1
1
1
1
1
1
1
1
1
1
1
1
1
1
1
1
1
1
1
1
1
1
1
1
1
1
1
1
1
1
1
1
1
1
1
1
1
1
1
1
1
1
1
1
1
1
1
1
1
1
1
1
1
1
1
1
1
1
1
1
1
1
1
1
1
1
1
1
1
1
1
1
1
1
1
1
1
1
1
1
1
1
1
1
1
1
1
1
1
1
1
1
1
1
1
1
1
1
1
1
1
1
1
1
1
1
1
1
1
1
1
1
1
1
1
1
1
1
1
1
1
1
1
1
1
1
1
1
1
1
1
1
1
1
1
1
1
1
1
1
1
1
1
1
1
1
1
1
1
1
1
1
1
1
1
1
1
1
1
1
1
1
1
1
1
1
1
1
1
1
1
1
1
1
1
1
1
1
1
1
1
1
1
1
1
1
1
1
1
1
1
1
1
1
1
1
1
1
1
1
1
1
1
1
1
1
1
1
1
1
1
1
1
1
1
1
1
1
1
1
1
1
1
1
1
1
1
1
1
1
1
1
1
1
1
1
1
1
1
1
1
1
1
1
1
1
1
1
1
1
1
1
1
1
1
1
1
1
1
1
1
1
1
1
1
1
1
1
1
1
1
1
1
1
1
1
1
1
1
1
1
1
1
1
1
1
1
1
1
1
1
1
1
1
1
1
1
1
1
1
1
1
1
1
1
1
1
1
1
1
1
1
1
1
1
1
1
1
1
1
1
1
1
1
1
1
1
1
1
1
1
1
1
1
1
1
1
1
1
1
1
1
1
1
1
1
1
1
1
1
1
1
1
1
1
1
1
1
1
1
1
1
1
1
1
1
1
1
1
1
1
1
1
1
1
1
1
1
1
1
1
1
1
1
1
1
1
1
1
1
1
1
1
1
1
1
1
1
1
1
1
1
1
1
1
1
1
1
1
1
1
1
1
1
1
1
1
1
1
1
1
1
1
1
1
1
1
1
1
1
1
1
1
1
1
1
1
1
1
1
1
1
1
1
1
1
1
1
1
1
1
1
1
1
1
1
1
1
1
1
1
1
1
1
1
1
1
1
1
1
1
1
1
1
1
1
1
1
1
1
1
1
1
1
1
1
1
1
1
1
1
1
1
1
1
1
1
1
1
1
1
1
1
1
1
1
1
1
1
1
1
1
1
1
1
1
1
1
1
1
1
1
1
1
1
1
1
1
1
1
1
1
1
1
1
1
1
1
1
1
1
1
1
1
1
1
1
1
1
1
1
1
1
1
1
1
1
1
1
1
1
1
1
1
1
1
1
1
1
1
1
1
1
1
1
1
1
1
1
1
1
1
1
1
1
1
1
1
1
1
1
1
1
1
1
1
1
1
1
1
1
1
1
1
1
1
1
1
1
1
1
1
1
1
1
1
1
1
1
1
1
1
1
1
1
1
1
1
1
1
1
1
1
1
1
1
1
1
1
1
1
1
1
1
1
1
1
1
1
1
1
1
1
1
1
1
1
1
1
1
1
1
1
1
1
1
1
1
1
1
1
1
1
1
1
1
1
1
1
1
1
1
1
1
1
1
1
1
1
1
1
1
1
1
1
1
1
1
1
1
1
1
1
1
1
1
1
1
1
1
1
1
1
1
1
1
1.26097
1.67646
2.16848
2.74893
3.43833
3.98936
4.46342
5.1223
6.06754
6.33591
6.50002
6.89534
7.22497
7.2219
7.03853
6.71673
6.42354
6.03159
5.47491
4.9648
4.81218
4.72311
4.55477
4.49096
4.51012
4.56988
4.65741
4.71197
4.74983
4.80547
4.86427
4.88982
4.88114
4.87159
4.88473
4.90646
4.91492
4.91253
4.90092
4.88074
4.87353
4.88873
4.92461
4.96273
4.97733
4.97121
4.95692
4.93755
4.90592
4.8794
4.86472
4.85969
4.86646
4.90137
4.94902
4.98027
4.99459
4.99614
4.98893
4.97261
4.95367
4.92656
4.89779
4.87788
4.87384
4.87962
4.89984
4.92415
4.94977
4.97048
4.98671
5.00248
5.01408
5.01563
5.00999
4.99636
4.97362
4.94245
4.91428
4.90541
1
0.999833
1.00223
1.00183
1.035
1.18921
1.38946
1.54796
1.84143
2.36921
2.77847
3.20383
3.76143
4.22781
4.52232
4.75696
5.07003
5.16615
5.22169
5.222
5.26366
5.3083
5.26888
5.10823
4.99231
4.92017
4.89021
4.80413
4.73953
4.74481
4.77675
4.80714
4.81377
4.82269
4.85168
4.89559
4.91598
4.91693
4.91168
4.8993
4.88017
4.87868
4.88758
4.90056
4.92319
4.94503
4.94834
4.94307
4.93846
4.9362
4.92805
4.91032
4.90206
4.9033
4.9068
4.91413
4.92615
4.94034
4.95267
4.95691
4.95462
4.95334
4.94954
4.94321
4.94051
4.94387
4.94449
4.94054
4.92891
4.92386
4.92409
4.93166
4.95138
4.97619
4.98438
4.98084
4.97144
4.9635
4.95672
4.95332
1
1
1
1
0.999999
0.999998
1
1
0.998813
1.00907
1.04704
1.14004
1.35881
1.75041
2.29902
3.06838
4.03233
4.9787
5.29708
5.70207
5.77084
5.74475
5.70996
5.59257
5.4231
5.2478
5.02935
4.8338
4.72637
4.73444
4.77828
4.79366
4.79397
4.80443
4.83303
4.88308
4.9228
4.93238
4.92983
4.92121
4.90694
4.89026
4.8848
4.88196
4.88032
4.89218
4.92167
4.94921
4.96568
4.96807
4.95929
4.95056
4.94144
4.92992
4.91548
4.90233
4.88883
4.88261
4.88897
4.91658
4.9498
4.96749
4.97346
4.97854
4.98617
4.99082
4.98844
4.97248
4.94417
4.91417
4.89936
4.89754
4.90073
4.91402
4.93865
4.96061
4.97542
4.98361
4.9852
4.98529
1
1
1
1
1
1
1
1
1
1
1
1
1
0.998947
1.00634
1.08449
1.29788
1.90785
2.72542
3.58034
4.38367
4.73565
5.12777
5.1677
5.13987
5.16821
5.22027
5.19283
5.08567
5.03192
5.0029
4.95419
4.87274
4.77917
4.75853
4.76649
4.80881
4.86059
4.89445
4.91228
4.91605
4.91393
4.90938
4.89632
4.87068
4.86016
4.8678
4.89739
4.93321
4.96688
4.98705
4.98819
4.97699
4.95261
4.92266
4.90099
4.88424
4.86844
4.86652
4.87876
4.9021
4.9299
4.95984
4.99002
5.01153
5.01684
5.01206
4.9928
4.95018
4.90618
4.89302
4.89408
4.89941
4.90838
4.91825
4.93281
4.94883
4.96366
4.97905
4.99343
1
1
1
1
1
1
1
1
1
1
1
1
1
1
1
1
0.99973
0.999546
1.04546
1.17004
1.60103
2.33532
3.11789
3.91959
4.43835
5.07323
5.31808
5.34816
5.37765
5.34884
5.2836
5.16649
4.95915
4.77945
4.74502
4.75753
4.80818
4.85065
4.87444
4.89236
4.90648
4.90927
4.90984
4.90465
4.88394
4.87001
4.87435
4.88828
4.90143
4.92016
4.94722
4.96136
4.96167
4.95361
4.94847
4.94567
4.93458
4.91266
4.89722
4.89964
4.90265
4.90439
4.9114
4.92999
4.95735
4.98108
4.98831
4.98026
4.95707
4.93956
4.93412
4.93483
4.93684
4.93842
4.94295
4.94638
4.94937
4.95137
4.95438
4.96232
1
1
1
1
1
1
1
1
1
1
1
1
1
1
1
1
1
1
1
1
0.999004
1.01631
1.08384
1.4026
2.00844
2.72472
3.54675
4.10881
4.73222
5.00732
5.01818
5.01596
5.00802
4.94271
4.90591
4.90917
4.92853
4.92009
4.91504
4.89626
4.87627
4.87109
4.87978
4.88181
4.87631
4.87516
4.89297
4.90196
4.89864
4.89089
4.88673
4.89282
4.91412
4.95166
4.97806
4.98246
4.98076
4.97688
4.96168
4.93706
4.92587
4.91123
4.8953
4.89162
4.89576
4.90872
4.92877
4.94545
4.95585
4.96133
4.96599
4.9761
4.98436
4.98563
4.98162
4.97365
4.96477
4.95495
4.94445
4.93879
1
1
1
1
1
1
1
1
1
1
1
1
1
1
1
1
1
1
1
1
1
1
1
0.999318
1.00481
1.04426
1.29076
1.76454
2.41801
3.25189
3.89249
4.66143
4.93961
5.02499
5.10625
5.10065
5.06749
5.00705
4.88634
4.77612
4.77212
4.80428
4.85386
4.89469
4.92888
4.93891
4.93182
4.8983
4.8638
4.84784
4.8441
4.84218
4.85576
4.90011
4.9567
4.99052
4.99812
4.99737
4.9973
4.99404
4.9589
4.91747
4.88969
4.87764
4.87993
4.88865
4.89712
4.90914
4.92381
4.94096
4.9649
4.99313
5.00834
5.01053
5.00461
4.98928
4.9611
4.94564
4.9291
4.91852
1
1
1
1
1
1
1
1
1
1
1
1
1
1
1
1
1
1
1
1
1
1
1
1
1
1
0.999812
1.00101
1.02241
1.21412
1.60209
2.18613
3.00745
3.70651
4.53646
4.76629
4.82799
4.85865
4.8182
4.7781
4.7787
4.83159
4.88159
4.93169
4.96626
4.96674
4.96004
4.95648
4.92723
4.8639
4.83619
4.83468
4.84519
4.87048
4.89452
4.9258
4.95798
4.97948
4.99459
4.99755
4.99446
4.98137
4.95944
4.92831
4.90933
4.90771
4.90727
4.9056
4.90693
4.91497
4.93542
4.96329
4.98353
4.98785
4.98323
4.97425
4.96463
4.94953
4.93329
4.92713
1
1
1
1
1
1
1
1
1
1
1
1
1
1
1
1
1
1
1
1
1
1
1
1
1
1
1
1
1
0.999997
0.999919
1.01437
1.17588
1.50813
2.12464
2.91395
3.65682
4.49706
4.70819
4.84172
4.89492
4.88678
4.89288
4.9058
4.94119
4.95537
4.95667
4.95477
4.93922
4.92426
4.91907
4.91604
4.90542
4.88728
4.87753
4.87877
4.87572
4.87903
4.90556
4.95107
4.97976
4.98372
4.98195
4.98342
4.9842
4.97737
4.9597
4.93261
4.91112
4.90768
4.91665
4.92431
4.92969
4.93304
4.93485
4.94203
4.95436
4.95812
4.95703
4.95458
1
1
1
1
1
1
1
1
1
1
1
1
1
1
1
1
1
1
1
1
1
1
1
1
1
1
1
1
1
1
1
1
0.999997
0.999821
1.01487
1.16787
1.44362
2.01196
2.83253
3.72447
4.50414
4.55782
4.63023
4.73426
4.7412
4.75332
4.793
4.86168
4.92479
4.95427
4.97274
4.98229
4.99371
4.99438
4.94687
4.87188
4.84113
4.83973
4.85799
4.88168
4.90105
4.93084
4.95688
4.98153
5.00081
5.00857
5.00617
4.9933
4.96808
4.93649
4.91547
4.91055
4.9083
4.90867
4.91077
4.91601
4.92773
4.94662
4.96555
4.9722
1
1
1
1
1
1
1
1
1
1
1
1
1
1
1
1
1
1
1
1
1
1
1
1
1
1
1
1
1
1
1
1
1
1
1
1
0.999861
1.01433
1.15775
1.46196
2.13725
2.92822
3.78852
4.50249
4.66425
4.67511
4.68332
4.70093
4.77259
4.91666
4.99065
5.00762
5.02145
5.02691
5.01083
4.97489
4.92934
4.88325
4.86801
4.87035
4.87919
4.88245
4.88779
4.90289
4.94263
4.98209
4.99626
4.99191
4.98281
4.97723
4.97012
4.95759
4.93787
4.91579
4.90571
4.91031
4.92493
4.93981
4.94755
4.96196
1
1
1
1
1
1
1
1
1
1
1
1
1
1
1
1
1
1
1
1
1
1
1
1
1
1
1
1
1
1
1
1
1
1
1
1
0.999999
1
0.999892
1.00041
1.02904
1.19458
1.50395
2.19044
3.06888
4.17279
4.49045
4.50401
4.60791
4.71593
4.76083
4.79183
4.85468
4.95293
4.99575
4.98405
4.97184
4.97971
4.98499
4.97428
4.93781
4.89242
4.86931
4.87339
4.89137
4.90286
4.91697
4.92953
4.94128
4.95944
4.97855
4.98438
4.98162
4.97196
4.95326
4.93974
4.93647
4.93754
4.94003
4.9453
1
1
1
1
1
1
1
1
1
1
1
1
1
1
1
1
1
1
1
1
1
1
1
1
1
1
1
1
1
1
1
1
1
1
1
1
1
1
0.999999
0.999998
1.00001
0.99996
1.00126
1.04352
1.22201
1.73662
2.51298
3.32654
4.2376
4.62178
4.62254
4.66034
4.62883
4.69179
4.8497
4.96429
4.98721
5.00356
5.02071
5.04399
5.04102
5.00661
4.9565
4.91102
4.88942
4.88528
4.879
4.87689
4.88139
4.90269
4.95341
4.98312
4.98764
4.98281
4.97445
4.97704
4.97818
4.9712
4.95659
4.94123
1
1
1
1
1
1
1
1
1
1
1
1
1
1
1
1
1
1
1
1
1
1
1
1
1
1
1
1
1
1
1
1
1
1
1
1
1
1
1
1
1
0.999999
0.999996
1.00005
1.00008
1.00753
1.10943
1.32869
1.9092
2.7956
3.9778
4.55331
4.56575
4.60787
4.73078
4.75388
4.75445
4.78767
4.87238
4.9866
5.01925
4.99905
4.98847
4.99618
4.99107
4.96714
4.91679
4.87252
4.86308
4.87857
4.9144
4.93127
4.93911
4.9466
4.96295
4.97858
4.9871
4.98544
4.97723
4.96116
1
1
1
1
1
1
1
1
1
1
1
1
1
1
1
1
1
1
1
1
1
1
1
1
1
1
1
1
1
1
1
1
1
1
1
1
1
1
1
1
1
1
1
1
1
0.999998
1.00004
1.00069
1.02263
1.17355
1.66544
2.51285
3.33309
4.15393
4.7154
4.73447
4.70271
4.642
4.66979
4.79065
4.90519
4.94536
4.97914
5.00796
5.03276
5.03627
5.0104
4.96659
4.94016
4.92966
4.92153
4.91964
4.91619
4.91555
4.92122
4.94127
4.96471
4.96707
4.95997
4.95217
1
1
1
1
1
1
1
1
1
1
1
1
1
1
1
1
1
1
1
1
1
1
1
1
1
1
1
1
1
1
1
1
1
1
1
1
1
1
1
1
1
1
1
1
1
1
1
0.999998
0.999971
1.0002
1.00792
1.11459
1.37206
1.94348
2.90595
4.13398
4.6959
4.68123
4.73471
4.81838
4.81919
4.78994
4.76366
4.81034
4.90307
4.9833
4.97783
4.96239
4.96478
4.98878
5.00334
4.99062
4.94777
4.91464
4.90925
4.91816
4.93119
4.93302
4.92729
4.92944
1
1
1
1
1
1
1
1
1
1
1
1
1
1
1
1
1
1
1
1
1
1
1
1
1
1
1
1
1
1
1
1
1
1
1
1
1
1
1
1
1
1
1
1
1
1
1
1
0.999998
0.999999
0.999989
1.00012
1.00177
1.0329
1.21561
1.86852
2.92899
3.85373
4.4504
4.86011
4.93122
4.88557
4.72397
4.71532
4.75199
4.83447
4.88853
4.90349
4.94555
5.00412
5.03356
5.0253
4.98603
4.9644
4.9524
4.94417
4.93695
4.92967
4.91821
4.91851
1
1
1
1
1
1
1
1
1
1
1
1
1
1
1
1
1
1
1
1
1
1
1
1
1
1
1
1
1
1
1
1
1
1
1
1
1
1
1
1
1
1
1
1
1
1
1
1
1
1
1
1
1
0.999972
1.00077
1.02608
1.28423
1.78709
2.5247
3.55502
4.60765
4.86564
4.81737
4.8767
4.91971
4.89189
4.86722
4.82099
4.82329
4.87716
4.94692
4.97114
4.95177
4.94245
4.95579
4.9657
4.97413
4.97094
4.95457
4.94287
1
1
1
1
1
1
1
1
1
1
1
1
1
1
1
1
1
1
1
1
1
1
1
1
1
1
1
1
1
1
1
1
1
1
1
1
1
1
1
1
1
1
1
1
1
1
1
1
1
1
1
1
1
0.999998
0.999999
0.999973
1.00178
1.01656
1.15074
1.54586
2.53805
3.6744
4.394
4.73685
4.96447
4.99991
4.99322
4.91673
4.85313
4.86437
4.87125
4.88544
4.87917
4.86104
4.88235
4.94851
4.982
4.98067
4.97298
4.97598
1
1
1
1
1
1
1
1
1
1
1
1
1
1
1
1
1
1
1
1
1
1
1
1
1
1
1
1
1
1
1
1
1
1
1
1
1
1
1
1
1
1
1
1
1
1
1
1
1
1
1
1
1
1
1
0.999997
0.999999
0.99998
1.00052
1.00829
1.1577
1.83948
2.82302
3.53824
4.38837
4.93525
4.99828
4.96198
4.99656
5.05825
5.03387
4.96927
4.90099
4.85204
4.85976
4.89617
4.91328
4.92064
4.92957
4.9617
1
1
1
1
1
1
1
1
1
1
1
1
1
1
1
1
1
1
1
1
1
1
1
1
1
1
1
1
1
1
1
1
1
1
1
1
1
1
1
1
1
1
1
1
1
1
1
1
1
1
1
1
1
1
1
1
1
0.999998
0.999998
0.999985
1.00131
1.0275
1.22758
1.78237
2.70409
3.87776
4.37195
4.62372
4.88085
5.01666
5.03874
5.01868
4.98725
4.96436
4.94283
4.91919
4.90108
4.88062
4.87395
4.91171
1
1
1
1
1
1
1
1
1
1
1
1
1
1
1
1
1
1
1
1
1
1
1
1
1
1
1
1
1
1
1
1
1
1
1
1
1
1
1
1
1
1
1
1
1
1
1
1
1
1
1
1
1
1
1
1
1
1
1
0.999997
0.999999
0.999991
1.00196
1.0255
1.18212
1.90013
3.33073
4.03517
4.3834
4.75827
4.91942
4.89935
4.92649
4.98905
5.03906
5.05608
5.02683
4.95724
4.90676
4.91069
1
1
1
1
1
1
1
1
1
1
1
1
1
1
1
1
1
1
1
1
1
1
1
1
1
1
1
1
1
1
1
1
1
1
1
1
1
1
1
1
1
1
1
1
1
1
1
1
1
1
1
1
1
1
1
1
1
1
1
1
1
0.999998
1
0.999992
1.00192
1.04381
1.42173
2.43126
3.44486
4.46564
4.69899
4.61948
4.66046
4.78021
4.92108
5.01386
5.01594
4.97535
4.96218
4.95829
1
1
1
1
1
1
1
1
1
1
1
1
1
1
1
1
1
1
1
1
1
1
1
1
1
1
1
1
1
1
1
1
1
1
1
1
1
1
1
1
1
1
1
1
1
1
1
1
1
1
1
1
1
1
1
1
1
1
1
1
1
1
1
0.999999
0.999995
1.00012
1.01057
1.14847
1.56189
2.54671
4.03577
4.6551
4.69687
4.71062
4.76936
4.8983
4.93151
4.90714
4.9008
4.9201
1
1
1
1
1
1
1
1
1
1
1
1
1
1
1
1
1
1
1
1
1
1
1
1
1
1
1
1
1
1
1
1
1
1
1
1
1
1
1
1
1
1
1
1
1
1
1
1
1
1
1
1
1
1
1
1
1
1
1
1
1
1
1
1
0.999999
0.999999
0.999997
1.00089
1.0191
1.16481
1.93258
3.32861
4.37326
4.72605
4.90501
4.9591
4.94073
4.90914
4.86417
4.8609
1
1
1
1
1
1
1
1
1
1
1
1
1
1
1
1
1
1
1
1
1
1
1
1
1
1
1
1
1
1
1
1
1
1
1
1
1
1
1
1
1
1
1
1
1
1
1
1
1
1
1
1
1
1
1
1
1
1
1
1
1
1
1
1
1
1
0.999999
0.999998
1.00001
1.0016
1.06262
1.5955
2.67437
3.66454
4.63536
4.99364
5.02878
5.0218
4.98785
4.92078
1
1
1
1
1
1
1
1
1
1
1
1
1
1
1
1
1
1
1
1
1
1
1
1
1
1
1
1
1
1
1
1
1
1
1
1
1
1
1
1
1
1
1
1
1
1
1
1
1
1
1
1
1
1
1
1
1
1
1
1
1
1
1
1
1
1
1
1
1
0.999998
1.00055
1.02207
1.24089
2.07757
3.36576
4.38443
4.5874
4.81454
4.98907
5.0261
1
1
1
1
1
1
1
1
1
1
1
1
1
1
1
1
1
1
1
1
1
1
1
1
1
1
1
1
1
1
1
1
1
1
1
1
1
1
1
1
1
1
1
1
1
1
1
1
1
1
1
1
1
1
1
1
1
1
1
1
1
1
1
1
1
1
1
1
1
1
0.999998
1.00005
1.00443
1.09646
1.50431
2.72981
4.00108
4.59152
4.88175
4.98026
1
1
1
1
1
1
1
1
1
1
1
1
1
1
1
1
1
1
1
1
1
1
1
1
1
1
1
1
1
1
1
1
1
1
1
1
1
1
1
1
1
1
1
1
1
1
1
1
1
1
1
1
1
1
1
1
1
1
1
1
1
1
1
1
1
1
1
1
1
1
1
1
0.999997
1.00084
1.01751
1.27549
2.41715
3.77249
4.28868
4.7112
1
1
1
1
1
1
1
1
1
1
1
1
1
1
1
1
1
1
1
1
1
1
1
1
1
1
1
1
1
1
1
1
1
1
1
1
1
1
1
1
1
1
1
1
1
1
1
1
1
1
1
1
1
1
1
1
1
1
1
1
1
1
1
1
1
1
1
1
1
1
1
1
1
0.999998
1.00006
1.01034
1.15585
2.00104
3.37971
4.51131
1
1
1
1
1
1
1
1
1
1
1
1
1
1
1
1
1
1
1
1
1
1
1
1
1
1
1
1
1
1
1
1
1
1
1
1
1
1
1
1
1
1
1
1
1
1
1
1
1
1
1
1
1
1
1
1
1
1
1
1
1
1
1
1
1
1
1
1
1
1
1
1
1
1
1
1.00004
1.00303
1.10889
1.62203
3.40447
1
1
1
1
1
1
1
1
1
1
1
1
1
1
1
1
1
1
1
1
1
1
1
1
1
1
1
1
1
1
1
1
1
1
1
1
1
1
1
1
1
1
1
1
1
1
1
1
1
1
1
1
1
1
1
1
1
1
1
1
1
1
1
1
1
1
1
1
1
1
1
1
1
1
1
1
1
1.00219
1.03293
2.00352
1
1
1
1
1
1
1
1
1
1
1
1
1
1
1
1
1
1
1
1
1
1
1
1
1
1
1
1
1
1
1
1
1
1
1
1
1
1
1
1
1
1
1
1
1
1
1
1
1
1
1
1
1
1
1
1
1
1
1
1
1
1
1
1
1
1
1
1
1
1
1
1
1
1
1
1
1
1
1.00057
1.20867
1
1
1
1
1
1
1
1
1
1
1
1
1
1
1
1
1
1
1
1
1
1
1
1
1
1
1
1
1
1
1
1
1
1
1
1
1
1
1
1
1
1
1
1
1
1
1
1
1
1
1
1
1
1
1
1
1
1
1
1
1
1
1
1
1
1
1
1
1
1
1
1
1
1
1
1
1
1
1.00001
1.02149
1
1
1
1
1
1
1
1
1
1
1
1
1
1
1
1
1
1
1
1
1
1
1
1
1
1
1
1
1
1
1
1
1
1
1
1
1
1
1
1
1
1
1
1
1
1
1
1
1
1
1
1
1
1
1
1
1
1
1
1
1
1
1
1
1
1
1
1
1
1
1
1
1
1
1
1
1
1
1
1.00122
1
1
1
1
1
1
1
1
1
1
1
1
1
1
1
1
1
1
1
1
1
1
1
1
1
1
1
1
1
1
1
1
1
1
1
1
1
1
1
1
1
1
1
1
1
1
1
1
1
1
1
1
1
1
1
1
1
1
1
1
1
1
1
1
1
1
1
1
1
1
1
1
1
1
1
1
1
1
1
1.00004
1
1
1
1
1
1
1
1
1
1
1
1
1
1
1
1
1
1
1
1
1
1
1
1
1
1
1
1
1
1
1
1
1
1
1
1
1
1
1
1
1
1
1
1
1
1
1
1
1
1
1
1
1
1
1
1
1
1
1
1
1
1
1
1
1
1
1
1
1
1
1
1
1
1
1
1
1
1
1
1
1
1
1
1
1
1
1
1
1
1
1
1
1
1
1
1
1
1
1
1
1
1
1
1
1
1
1
1
1
1
1
1
1
1
1
1
1
1
1
1
1
1
1
1
1
1
1
1
1
1
1
1
1
1
1
1
1
1
1
1
1
1
1
1
1
1
1
1
1
1
1
1
1
1
1
1
1
1
1
1
1
1
1
1
1
1
1
1
1
1
1
1
1
1
1
1
1
1
1
1
1
1
1
1
1
1
1
1
1
1
1
1
1
1
1
1
1
1
1
1
1
1
1
1
1
1
1
1
1
1
1
1
1
1
1
1
1
1
1
1
1
1
1
1
1
1
1
1
1
1
1
1
1
1
1
1
1
1
1
1
1
1
1
1
1
1
1
1
1
1
1
1
1
1
1
1
1
1
1
1
1
1
1
1
1
1
1
1
1
1
1
1
1
1
1
1
1
1
1
1
1
1
1
1
1
1
1
1
1
1
1
1
1
1
1
1
1
1
1
1
1
1
1
1
1
1
1
1
1
1
1
1
1
1
1
1
1
1
1
1
)
;

boundaryField
{
    inlet
    {
        type            fixedValue;
        value           uniform 1;
    }
    outlet
    {
        type            zeroGradient;
    }
    bottom
    {
        type            symmetryPlane;
    }
    top
    {
        type            symmetryPlane;
    }
    obstacle
    {
        type            zeroGradient;
    }
    defaultFaces
    {
        type            empty;
    }
}


// ************************************************************************* //
