/*--------------------------------*- C++ -*----------------------------------*\
| =========                 |                                                 |
| \\      /  F ield         | OpenFOAM: The Open Source CFD Toolbox           |
|  \\    /   O peration     | Version:  2206                                  |
|   \\  /    A nd           | Website:  www.openfoam.com                      |
|    \\/     M anipulation  |                                                 |
\*---------------------------------------------------------------------------*/
FoamFile
{
    version     2.0;
    format      ascii;
    arch        "LSB;label=32;scalar=64";
    class       volVectorField;
    location    "0.06";
    object      U;
}
// * * * * * * * * * * * * * * * * * * * * * * * * * * * * * * * * * * * * * //

dimensions      [0 1 -1 0 0 0 0];

internalField   nonuniform List<vector> 
4800
(
(6.75758 -2.64379e-15 0)
(6.75758 -1.57461e-14 0)
(6.75758 -1.63061e-14 0)
(6.75758 -1.31023e-15 0)
(6.75758 4.01169e-14 0)
(6.75758 3.852e-14 0)
(6.75758 1.59694e-14 0)
(6.75758 -7.59031e-14 0)
(6.75758 -9.09924e-14 0)
(6.75758 -8.66716e-14 0)
(6.75758 -3.70597e-14 0)
(6.75758 -2.38941e-14 0)
(6.75758 -3.91301e-14 0)
(6.75758 -7.84369e-14 0)
(6.75758 -8.66916e-14 0)
(6.75758 -5.69732e-14 0)
(6.75758 -4.97019e-14 0)
(6.75758 -5.83434e-14 0)
(6.75758 -6.95987e-14 0)
(6.75758 -7.66899e-14 0)
(6.75758 -8.59548e-14 0)
(6.75758 -6.60214e-14 0)
(6.75758 3.63729e-15 0)
(6.75758 4.18206e-14 0)
(6.75758 8.16474e-15 0)
(6.75758 -1.52993e-14 0)
(6.75758 -1.7113e-14 0)
(6.75758 -7.13457e-15 0)
(6.75758 2.08803e-14 0)
(6.75758 2.37108e-14 0)
(6.75758 3.17155e-14 0)
(6.75758 1.47492e-14 0)
(6.75758 -1.00051e-14 0)
(6.75758 -1.67196e-14 0)
(6.75758 -2.79148e-14 0)
(6.75758 -1.29089e-14 0)
(6.75758 -1.47492e-14 0)
(6.75758 -2.11503e-14 0)
(6.75758 -4.6308e-15 0)
(6.75758 5.3876e-15 0)
(6.75758 -1.35923e-14 0)
(6.75758 -1.26288e-14 0)
(6.75758 -2.61612e-14 0)
(6.75758 -3.16155e-14 0)
(6.75758 -4.14738e-15 0)
(6.75758 -7.39461e-15 0)
(6.75758 -1.51326e-14 0)
(6.75758 -3.73164e-14 0)
(6.75758 -7.63999e-14 0)
(6.75758 -9.12824e-14 0)
(6.75758 -6.84118e-14 0)
(6.75758 -7.18257e-14 0)
(6.75758 -8.86486e-14 0)
(6.75758 -1.33546e-13 0)
(6.75758 -1.26469e-13 0)
(6.75758 -3.53028e-14 0)
(6.75758 -2.77815e-14 0)
(6.75758 -3.6843e-14 0)
(6.75758 -2.41542e-14 0)
(6.75758 -5.48428e-15 0)
(6.75758 1.79898e-14 0)
(6.75758 1.87066e-14 0)
(6.75758 6.06071e-14 0)
(6.75758 1.13286e-14 0)
(6.75758 -1.28422e-14 0)
(6.75758 -5.82301e-14 0)
(6.75758 -1.95934e-14 0)
(6.75758 -1.85032e-15 0)
(6.75758 3.39492e-14 0)
(6.75758 4.94585e-14 0)
(6.75758 4.67947e-14 0)
(6.75758 1.21121e-14 0)
(6.75758 -1.54327e-14 0)
(6.75758 -4.12538e-14 0)
(6.75758 -9.49764e-14 0)
(6.75758 -2.00368e-14 0)
(6.75758 4.03136e-14 0)
(6.75758 4.48111e-14 0)
(6.75758 1.926e-14 0)
(6.75758 -4.75811e-14 0)
(6.75758 6.41444e-15 0)
(6.75758 1.54693e-14 0)
(6.75758 5.88435e-15 0)
(6.75758 -2.18438e-14 0)
(6.75758 -4.05737e-14 0)
(6.75758 -3.70564e-14 0)
(6.75758 -1.65395e-14 0)
(6.75758 6.36777e-15 0)
(6.75758 3.52661e-14 0)
(6.75758 4.4251e-14 0)
(6.75758 2.41975e-14 0)
(6.75758 8.91154e-15 0)
(6.75758 1.86032e-15 0)
(6.75758 -9.80169e-15 0)
(6.75758 5.14422e-15 0)
(6.75758 1.69196e-14 0)
(6.75758 3.38058e-14 0)
(6.75758 5.81434e-14 0)
(6.75758 5.86801e-14 0)
(6.75758 5.52295e-14 0)
(6.75758 6.79351e-14 0)
(6.75758 8.41512e-14 0)
(6.75758 1.15877e-13 0)
(6.75758 2.70913e-14 0)
(6.75758 -1.82498e-14 0)
(6.75758 -1.96901e-14 0)
(6.75758 -2.49376e-15 0)
(6.75758 7.88469e-15 0)
(6.75758 1.1422e-14 0)
(6.75758 1.36157e-14 0)
(6.75758 -6.39877e-14 0)
(6.75758 -1.131e-13 0)
(6.75758 -1.1499e-13 0)
(6.75758 -1.11646e-13 0)
(6.75758 -4.98386e-14 0)
(6.75758 -1.41358e-15 0)
(6.75758 2.01835e-14 0)
(6.75758 3.6923e-14 0)
(6.75758 2.04202e-14 0)
(6.75758 -2.98854e-14 0)
(6.75758 6.51112e-15 0)
(6.75758 -7.80802e-15 0)
(6.75758 -5.67431e-15 0)
(6.75758 3.71764e-14 0)
(6.75758 6.88286e-14 0)
(6.75758 5.94369e-14 0)
(6.75758 2.69413e-14 0)
(6.75758 1.82498e-14 0)
(6.75758 -2.65713e-15 0)
(6.75758 -6.19774e-15 0)
(6.75758 -1.06752e-14 0)
(6.75758 -1.80531e-14 0)
(6.75758 -1.08785e-14 0)
(6.75758 1.56994e-14 0)
(6.75758 2.67113e-14 0)
(6.75758 3.76398e-15 0)
(6.75758 2.49676e-14 0)
(6.75758 1.87466e-14 0)
(6.75758 2.96218e-14 0)
(6.75758 1.65389e-13 0)
(6.75758 1.85839e-13 0)
(6.75758 2.09526e-13 0)
(6.75758 1.03795e-13 0)
(6.75758 -1.98301e-14 0)
(6.75758 -2.67613e-14 0)
(6.75758 -4.68081e-15 0)
(6.75758 -2.26706e-16 0)
(6.75758 5.88668e-14 0)
(6.75758 6.3921e-14 0)
(6.75758 -1.29222e-14 0)
(6.75758 -2.12287e-13 0)
(6.75758 -2.72694e-13 0)
(6.75758 -3.1093e-13 0)
(6.75758 -1.98554e-13 0)
(6.75758 -1.3369e-13 0)
(6.75758 -1.23031e-13 0)
(6.75758 -1.20487e-13 0)
(6.75758 -8.82319e-14 0)
(6.75758 -2.14537e-14 0)
(6.75758 -4.61019e-14 0)
(6.75758 -9.50497e-15 0)
(6.75758 -1.51926e-14 0)
(6.75758 -1.07919e-14 0)
(6.75758 1.88233e-14 0)
(6.75758 2.1447e-14 0)
(6.75758 1.11153e-14 0)
(6.75758 1.36857e-14 0)
(6.75758 4.86751e-16 0)
(6.75758 -5.58163e-14 0)
(6.75758 -1.03485e-13 0)
(6.75758 -1.17524e-13 0)
(6.75758 -1.07038e-13 0)
(6.75758 -8.6585e-14 0)
(6.75758 -6.08472e-14 0)
(6.75758 -2.90383e-14 0)
(6.75758 -1.10686e-14 0)
(6.75758 1.04318e-14 0)
(6.75758 8.77985e-14 0)
(6.75758 1.66382e-13 0)
(6.75758 2.36538e-13 0)
(6.75758 1.98344e-13 0)
(6.75758 4.72915e-14 0)
(6.75758 -4.74215e-14 0)
(6.75758 -6.90886e-14 0)
(6.75758 -4.98653e-14 0)
(6.75758 3.53494e-14 0)
(6.75758 9.91104e-14 0)
(6.75758 1.1737e-13 0)
(6.75758 6.19007e-14 0)
(6.75758 -1.00311e-13 0)
(6.75758 -1.66195e-13 0)
(6.75758 -1.81641e-13 0)
(6.75758 -1.97591e-13 0)
(6.75758 -1.93367e-13 0)
(6.75758 -1.38084e-13 0)
(6.75758 -1.20511e-13 0)
(6.75758 -1.04391e-13 0)
(6.75758 -4.87651e-14 0)
(6.75758 -8.31477e-15 0)
(6.75758 1.93284e-14 0)
(6.75758 -2.46042e-15 0)
(6.75758 1.26922e-14 0)
(6.75758 1.52893e-14 0)
(6.75758 2.5031e-14 0)
(6.75758 1.12353e-14 0)
(6.75758 2.04035e-14 0)
(6.75758 8.13207e-14 0)
(6.75758 9.04289e-14 0)
(6.75758 6.18073e-14 0)
(6.75758 3.81666e-14 0)
(6.75758 1.96401e-14 0)
(6.75758 1.62028e-14 0)
(6.75758 1.89099e-14 0)
(6.75758 1.85865e-14 0)
(6.75758 8.80152e-15 0)
(6.75758 -3.22056e-15 0)
(6.75758 -7.94804e-15 0)
(6.75758 3.16088e-14 0)
(6.75758 4.6598e-14 0)
(6.75758 2.74314e-14 0)
(6.75758 2.22338e-14 0)
(6.75758 8.80152e-15 0)
(6.75758 -1.94734e-14 0)
(6.75758 -2.52877e-14 0)
(6.75758 9.98172e-15 0)
(6.75758 4.98686e-14 0)
(6.75758 5.31692e-14 0)
(6.75758 2.13304e-14 0)
(6.75758 -5.26291e-14 0)
(6.75758 -8.01072e-14 0)
(6.75758 -7.17791e-14 0)
(6.75758 -1.08152e-13 0)
(6.75758 -9.41663e-14 0)
(6.75758 -1.16807e-13 0)
(6.75758 -1.35503e-13 0)
(6.75758 -1.59221e-13 0)
(6.75758 -1.48622e-13 0)
(6.75758 -1.26038e-13 0)
(6.75758 -1.17404e-13 0)
(6.75758 -2.15098e-14 0)
(6.75758 4.96419e-15 0)
(6.75758 7.75134e-15 0)
(6.75758 8.36478e-15 0)
(6.75758 2.43975e-14 0)
(6.75758 3.98369e-14 0)
(6.75758 5.21223e-14 0)
(6.75758 7.34727e-14 0)
(6.75758 1.24241e-13 0)
(6.75758 1.44528e-13 0)
(6.75758 1.30949e-13 0)
(6.75758 8.83019e-14 0)
(6.75758 7.88103e-14 0)
(6.75758 3.66163e-14 0)
(6.75758 2.41175e-14 0)
(6.75758 4.4301e-14 0)
(6.75758 5.819e-14 0)
(6.75758 6.76784e-15 0)
(6.75758 -1.54327e-14 0)
(6.75758 -7.75567e-14 0)
(6.75758 -1.18367e-13 0)
(6.75758 -6.70783e-15 0)
(6.75758 3.13554e-14 0)
(6.75758 4.37509e-14 0)
(6.75758 7.73234e-14 0)
(6.75758 2.44075e-14 0)
(6.75758 -8.92654e-14 0)
(6.75758 -9.8407e-14 0)
(6.75758 -9.38695e-14 0)
(6.75758 -9.51898e-14 0)
(6.75758 -7.00688e-14 0)
(6.75758 -4.18706e-14 0)
(6.75758 -4.55145e-14 0)
(6.75758 -8.29277e-14 0)
(6.75758 -1.01874e-13 0)
(6.75758 -1.5371e-13 0)
(6.75758 -1.7631e-13 0)
(6.75758 -1.83805e-13 0)
(6.75758 -1.85819e-13 0)
(6.75758 -1.50796e-13 0)
(6.75758 -1.16717e-13 0)
(6.75758 3.05719e-15 0)
(6.75758 -1.3319e-14 0)
(6.75758 -2.16371e-14 0)
(6.75758 -2.70013e-14 0)
(6.75758 1.03685e-15 0)
(6.75758 -3.12054e-15 0)
(6.75758 -2.11703e-15 0)
(6.75758 2.03568e-14 0)
(6.75758 2.18271e-14 0)
(6.75758 2.08136e-14 0)
(6.75758 6.34843e-14 0)
(6.75758 6.93286e-14 0)
(6.75758 4.64647e-14 0)
(6.75758 1.09019e-14 0)
(6.75758 1.27722e-14 0)
(6.75758 2.12803e-14 0)
(6.75758 -2.75648e-14 0)
(6.75758 -4.96952e-14 0)
(6.75758 -3.74331e-14 0)
(6.75758 -3.4696e-14 0)
(6.75758 -4.93919e-14 0)
(6.75758 -2.87216e-14 0)
(6.75758 2.38841e-14 0)
(6.75758 4.59979e-14 0)
(6.75758 3.93735e-14 0)
(6.75758 -7.06122e-15 0)
(6.75758 -1.24922e-14 0)
(6.75758 1.18354e-15 0)
(6.75758 -3.31391e-14 0)
(6.75758 -3.07786e-14 0)
(6.75758 -2.31007e-14 0)
(6.75758 4.15838e-14 0)
(6.75758 7.5133e-14 0)
(6.75758 6.60214e-14 0)
(6.75758 -9.73168e-15 0)
(6.75758 -4.36109e-14 0)
(6.75758 -7.35027e-14 0)
(6.75758 -8.32344e-14 0)
(6.75758 -3.43459e-14 0)
(6.75758 -4.64289e-14 0)
(6.75758 -8.00138e-17 0)
(6.75758 -3.61062e-15 0)
(6.75758 -2.32373e-15 0)
(6.75758 -2.72914e-14 0)
(6.75758 -4.69748e-14 0)
(6.75758 -8.24642e-14 0)
(6.75758 -9.51464e-14 0)
(6.75758 -8.88753e-14 0)
(6.75758 -7.59898e-14 0)
(6.75758 -2.50277e-14 0)
(6.75758 1.15053e-14 0)
(6.75758 1.85699e-15 0)
(6.75758 -1.37257e-14 0)
(6.75758 -3.10454e-14 0)
(6.75758 -3.28257e-14 0)
(6.75758 2.19338e-14 0)
(6.75758 3.02352e-14 0)
(6.75758 -7.77134e-15 0)
(6.75758 -5.96203e-14 0)
(6.75758 -7.57397e-14 0)
(6.75758 -8.09373e-14 0)
(6.75758 -6.52579e-14 0)
(6.75758 -4.40876e-14 0)
(6.75758 -5.23224e-14 0)
(6.75758 -5.9997e-14 0)
(6.75758 -4.81016e-14 0)
(6.75758 -3.87934e-14 0)
(6.75758 -2.59145e-14 0)
(6.75758 -7.47796e-15 0)
(6.75758 -3.09553e-14 0)
(6.75758 -1.07028e-13 0)
(6.75758 -9.87137e-14 0)
(6.75758 -7.7e-14 0)
(6.75758 -3.34791e-14 0)
(6.75758 -2.40175e-14 0)
(6.75758 -2.09536e-14 0)
(6.75758 -4.30641e-14 0)
(6.75758 -5.24991e-14 0)
(6.75758 -5.768e-14 0)
(6.75758 -4.14793e-14 0)
(6.75758 1.06018e-15 0)
(6.75758 4.67081e-15 0)
(6.75758 1.10019e-16 0)
(6.75758 -3.31324e-14 0)
(6.75758 -6.90119e-14 0)
(6.75758 -1.19851e-13 0)
(6.75758 -1.96674e-13 0)
(6.75758 -2.03138e-13 0)
(6.75758 -1.71156e-13 0)
(6.75758 -1.31129e-13 0)
(6.75758 -1.24348e-13 0)
(6.75758 -1.10756e-13 0)
(6.75758 -8.1354e-14 0)
(6.75758 -8.07573e-14 0)
(6.75758 -6.30576e-14 0)
(6.75758 -8.16808e-15 0)
(6.75758 2.41208e-14 0)
(6.75758 5.95369e-14 0)
(6.75758 2.51143e-14 0)
(6.75758 -2.88883e-14 0)
(6.75758 -6.88352e-14 0)
(6.75758 -9.84603e-14 0)
(6.75758 -1.1716e-13 0)
(6.75758 -1.13123e-13 0)
(6.75758 -9.2626e-14 0)
(6.75758 -8.39712e-14 0)
(6.75758 -2.07136e-14 0)
(6.75758 -2.70047e-16 0)
(6.75758 8.70484e-15 0)
(6.75758 8.63816e-15 0)
(6.75758 -2.20038e-14 0)
(6.75758 -7.68899e-14 0)
(6.75758 -1.11106e-13 0)
(6.75758 -1.23991e-13 0)
(6.75758 -1.32536e-13 0)
(6.75758 -1.12766e-13 0)
(6.75758 -9.68234e-14 0)
(6.75758 -1.00301e-13 0)
(6.75758 -1.21311e-13 0)
(6.75758 -1.35653e-13 0)
(6.75758 5.56763e-16 0)
(6.75758 1.87532e-14 0)
(6.75758 2.96618e-14 0)
(6.75758 3.90968e-14 0)
(6.75758 2.32573e-14 0)
(6.75758 1.21654e-14 0)
(6.75758 -4.2414e-14 0)
(6.75758 -1.05642e-13 0)
(6.75758 -1.24165e-13 0)
(6.75758 -1.26198e-13 0)
(6.75758 -1.3527e-13 0)
(6.75758 -1.17447e-13 0)
(6.75758 -5.90869e-14 0)
(6.75758 -5.19523e-14 0)
(6.75758 -5.12822e-14 0)
(6.75758 -7.5263e-14 0)
(6.75758 -7.1379e-14 0)
(6.75758 -5.22724e-14 0)
(6.75758 5.13755e-15 0)
(6.75758 -4.21339e-14 0)
(6.75758 -6.13939e-14 0)
(6.75758 -6.43144e-14 0)
(6.75758 -3.19889e-14 0)
(6.75758 -4.00402e-15 0)
(6.75758 2.05802e-14 0)
(6.75758 2.43709e-14 0)
(6.75758 1.64495e-14 0)
(6.75758 -4.85484e-14 0)
(6.75758 -8.43546e-14 0)
(6.75758 -6.86352e-14 0)
(6.75758 8.95821e-15 0)
(6.75758 8.23609e-14 0)
(6.75758 1.11139e-13 0)
(6.75758 -3.17055e-14 0)
(6.75758 -3.58295e-14 0)
(6.75758 -5.29358e-14 0)
(6.75758 -9.14091e-14 0)
(6.75758 -1.21171e-13 0)
(6.75758 -1.13033e-13 0)
(6.75758 -9.02883e-14 0)
(6.75758 -4.78416e-15 0)
(6.75758 -3.04386e-15 0)
(6.75758 2.08936e-14 0)
(6.75758 4.80083e-14 0)
(6.75758 3.55161e-14 0)
(6.75758 3.42259e-14 0)
(6.75758 2.15404e-14 0)
(6.75758 1.03351e-16 0)
(6.75758 -5.55429e-15 0)
(6.75758 -1.39857e-14 0)
(6.75758 -3.14754e-14 0)
(6.75758 -7.736e-14 0)
(6.75758 -8.25543e-14 0)
(6.75758 -7.49963e-14 0)
(6.75758 -8.81085e-14 0)
(6.75758 -3.22056e-14 0)
(6.75758 2.33707e-15 0)
(6.75758 -4.70415e-15 0)
(6.75758 -1.86232e-14 0)
(6.75758 -7.81135e-14 0)
(6.75758 -1.24918e-13 0)
(6.75758 -1.22851e-13 0)
(6.75758 -1.02458e-13 0)
(6.75758 -4.4341e-14 0)
(6.75758 -3.74831e-14 0)
(6.75758 -5.46161e-14 0)
(6.75758 -6.80351e-14 0)
(6.75758 -5.771e-14 0)
(6.75758 -2.84049e-14 0)
(6.75758 -5.91435e-15 0)
(6.75758 -2.81382e-15 0)
(6.75758 3.79732e-15 0)
(6.75758 6.49479e-14 0)
(6.75758 8.98422e-14 0)
(6.75758 8.86553e-14 0)
(6.75758 4.54845e-14 0)
(6.75758 2.44009e-14 0)
(6.75758 2.59712e-15 0)
(6.75758 4.90085e-16 0)
(6.75758 3.04979e-14 0)
(6.75758 -2.83382e-16 0)
(6.75758 -1.66929e-14 0)
(6.75758 -3.56928e-14 0)
(6.75758 -3.88167e-14 0)
(6.75758 -2.44476e-14 0)
(6.75758 4.40709e-14 0)
(6.75758 1.28035e-13 0)
(6.75758 1.90806e-13 0)
(6.75758 1.734e-13 0)
(6.75758 1.22308e-13 0)
(6.75758 8.95088e-14 0)
(6.75758 2.01768e-14 0)
(6.75758 -2.20705e-15 0)
(6.75758 -1.20221e-14 0)
(6.75758 5.25757e-15 0)
(6.75758 3.79366e-14 0)
(6.75758 3.61162e-14 0)
(6.75758 3.79666e-14 0)
(6.75758 1.09786e-14 0)
(6.75758 3.93401e-16 0)
(6.75758 -3.59762e-14 0)
(6.75758 -7.3386e-14 0)
(6.75758 -1.5397e-13 0)
(6.75758 -1.31089e-13 0)
(6.75758 -5.84301e-14 0)
(6.75758 -3.49894e-14 0)
(6.75758 -8.53481e-16 0)
(6.75758 2.01035e-14 0)
(6.75758 3.13521e-14 0)
(6.75758 4.6328e-14 0)
(6.75758 1.67629e-14 0)
(6.75758 -3.90267e-14 0)
(6.75758 -7.40228e-14 0)
(6.75758 -8.1174e-14 0)
(6.75758 -7.06955e-14 0)
(6.75758 -6.86685e-14 0)
(6.75758 -4.60113e-14 0)
(6.75758 4.14405e-14 0)
(6.75758 1.03485e-13 0)
(6.75758 1.20958e-13 0)
(6.75758 4.40743e-15 0)
(6.75758 1.16954e-14 0)
(6.75758 5.08088e-15 0)
(6.75758 -7.75467e-15 0)
(6.75758 7.30126e-15 0)
(6.75758 3.09787e-14 0)
(6.75758 4.68414e-14 0)
(6.75758 8.72651e-14 0)
(6.75758 1.10789e-13 0)
(6.75758 1.12789e-13 0)
(6.75758 1.24208e-13 0)
(6.75758 8.91121e-14 0)
(6.75758 4.97886e-14 0)
(6.75758 6.48012e-14 0)
(6.75758 1.16267e-13 0)
(6.75758 1.04815e-13 0)
(6.75758 6.22974e-14 0)
(6.75758 6.62114e-14 0)
(6.75758 8.85153e-14 0)
(6.75758 5.47728e-14 0)
(6.75758 2.50043e-14 0)
(6.75758 -2.5361e-14 0)
(6.75758 -2.79015e-14 0)
(6.75758 -9.00155e-15 0)
(6.75758 7.30359e-14 0)
(6.75758 1.41728e-13 0)
(6.75758 1.27559e-13 0)
(6.75758 1.1844e-13 0)
(6.75758 1.56227e-14 0)
(6.75758 -2.10636e-14 0)
(6.75758 -4.17439e-14 0)
(6.75758 -5.73066e-14 0)
(6.75758 -1.01538e-13 0)
(6.75758 -1.06778e-13 0)
(6.75758 -6.70949e-14 0)
(6.75758 -1.84865e-14 0)
(6.75758 8.07473e-15 0)
(6.75758 8.55014e-14 0)
(6.75758 9.74768e-14 0)
(6.75758 7.79629e-14 0)
(6.75758 -3.59062e-15 0)
(6.75758 -8.38145e-15 0)
(6.75758 -8.03472e-15 0)
(6.75758 -3.16721e-16 0)
(6.75758 -5.27424e-15 0)
(6.75758 -3.75431e-14 0)
(6.75758 -4.66781e-14 0)
(6.75758 -7.42795e-14 0)
(6.75758 -9.51398e-14 0)
(6.75758 -8.84419e-14 0)
(6.75758 -3.56762e-14 0)
(6.75758 1.22088e-14 0)
(6.75758 8.1174e-14 0)
(6.75758 9.37895e-14 0)
(6.75758 8.71384e-14 0)
(6.75758 4.80316e-14 0)
(6.75758 1.58861e-14 0)
(6.75758 2.75214e-14 0)
(6.75758 1.82898e-14 0)
(6.75758 -1.38124e-14 0)
(6.75758 -3.17855e-14 0)
(6.75758 1.00767e-13 0)
(6.75758 1.43245e-13 0)
(6.75758 1.23838e-13 0)
(6.75758 6.44178e-14 0)
(6.75758 4.94419e-14 0)
(6.75758 6.34043e-14 0)
(6.75758 3.02219e-14 0)
(6.75758 -1.56494e-14 0)
(6.75758 -5.51462e-14 0)
(6.75758 -5.34226e-14 0)
(6.75758 -5.75499e-14 0)
(6.75758 -3.83166e-14 0)
(6.75758 -2.9025e-14 0)
(6.75758 -2.62979e-14 0)
(6.75758 7.46796e-15 0)
(6.75758 4.31808e-14 0)
(6.75758 -2.3124e-14 0)
(6.75758 -4.34708e-14 0)
(6.75758 -4.67273e-14 0)
(6.75758 7.57131e-15 0)
(6.75758 2.6838e-15 0)
(6.75758 -1.27355e-15 0)
(6.75758 -4.17072e-15 0)
(6.75758 -2.18838e-14 0)
(6.75758 -4.13105e-14 0)
(6.75758 -4.96019e-14 0)
(6.75758 -8.37945e-14 0)
(6.75758 -1.07855e-13 0)
(6.75758 -1.08602e-13 0)
(6.75758 -9.55832e-14 0)
(6.75758 -1.31389e-14 0)
(6.75758 8.49713e-14 0)
(6.75758 9.67534e-14 0)
(6.75758 4.85951e-14 0)
(6.75758 2.39575e-14 0)
(6.75758 1.37724e-14 0)
(6.75758 -6.28975e-14 0)
(6.75758 -9.74702e-14 0)
(6.75758 -1.24208e-13 0)
(6.75758 -2.86416e-14 0)
(6.75758 8.64483e-14 0)
(6.75758 1.29416e-13 0)
(6.75758 1.19291e-13 0)
(6.75758 3.98269e-14 0)
(6.75758 1.17187e-14 0)
(6.75758 5.10521e-14 0)
(6.75758 7.77501e-14 0)
(6.75758 7.06089e-14 0)
(6.75758 5.1879e-14 0)
(6.75758 5.57363e-14 0)
(6.75758 9.54031e-14 0)
(6.75758 3.60462e-14 0)
(6.75758 -2.61512e-14 0)
(6.75758 -5.48161e-14 0)
(6.75758 -5.53096e-14 0)
(6.75758 -7.36894e-14 0)
(6.75758 -9.13158e-14 0)
(6.75758 -8.75151e-14 0)
(6.75758 -8.01026e-14 0)
(6.75758 7.74134e-15 0)
(6.75758 1.62561e-14 0)
(6.75758 1.55093e-14 0)
(6.75758 1.66729e-14 0)
(6.75758 2.09803e-14 0)
(6.75758 1.62195e-14 0)
(6.75758 -1.24955e-14 0)
(6.75758 -2.38208e-14 0)
(6.75758 -8.00138e-15 0)
(6.75758 5.30758e-15 0)
(6.75758 1.09919e-14 0)
(6.75758 -1.70096e-14 0)
(6.75758 -3.19055e-14 0)
(6.75758 -2.82682e-14 0)
(6.75758 -2.69013e-14 0)
(6.75758 -6.5538e-14 0)
(6.75758 -9.33061e-14 0)
(6.75758 -1.13633e-13 0)
(6.75758 -6.52179e-14 0)
(6.75758 -2.3064e-14 0)
(6.75758 -1.49159e-14 0)
(6.75758 -1.42991e-14 0)
(6.75758 -1.54727e-14 0)
(6.75758 -2.16337e-14 0)
(6.75758 -2.18104e-14 0)
(6.75758 4.04303e-14 0)
(6.75758 9.50631e-14 0)
(6.75758 1.05988e-13 0)
(6.75758 1.12723e-13 0)
(6.75758 1.1843e-13 0)
(6.75758 6.9462e-14 0)
(6.75758 7.04555e-14 0)
(6.75758 8.91754e-14 0)
(6.75758 -3.38925e-14 0)
(6.75758 -9.89738e-14 0)
(6.75758 -1.00841e-13 0)
(6.75758 -1.12583e-13 0)
(6.75758 -3.94868e-14 0)
(6.75758 -1.96001e-14 0)
(6.75758 1.96326e-15 0)
(6.75758 -2.53177e-14 0)
(6.75758 -3.03452e-14 0)
(6.75758 -2.07202e-14 0)
(6.75758 1.71963e-14 0)
(6.75758 4.10904e-14 0)
(6.75758 1.69496e-14 0)
(6.75758 -9.55498e-15 0)
(6.75758 1.55027e-15 0)
(6.75758 2.59145e-14 0)
(6.75758 6.32209e-14 0)
(6.75758 4.79049e-14 0)
(6.75758 9.30827e-15 0)
(6.75758 -8.60515e-14 0)
(6.75758 -8.99889e-14 0)
(6.75758 -1.28182e-13 0)
(6.75758 -1.40914e-13 0)
(6.75758 -1.44838e-13 0)
(6.75758 -1.1323e-13 0)
(6.75758 -8.2951e-14 0)
(6.75758 -1.55293e-14 0)
(6.75758 1.04351e-15 0)
(6.75758 -5.48561e-14 0)
(6.75758 -1.07805e-13 0)
(6.75758 -1.09796e-13 0)
(6.75758 -8.45113e-14 0)
(6.75758 -3.40826e-14 0)
(6.75758 -2.96718e-16 0)
(6.75758 4.54712e-14 0)
(6.75758 5.24024e-14 0)
(6.75758 5.46594e-14 0)
(6.75758 9.13391e-14 0)
(6.75758 9.99339e-14 0)
(6.75758 1.39234e-13 0)
(6.75758 1.1447e-13 0)
(6.75758 -6.47445e-15 0)
(6.75758 -3.26623e-14 0)
(6.75758 -2.41442e-14 0)
(6.75758 -5.45428e-15 0)
(6.75758 6.68115e-15 0)
(6.75758 2.11312e-16 0)
(6.75758 4.71081e-15 0)
(6.75758 9.23159e-15 0)
(6.75758 1.18787e-14 0)
(6.75758 1.39357e-15 0)
(6.75758 7.5013e-15 0)
(6.75758 -3.6773e-15 0)
(6.75758 3.12754e-14 0)
(6.75758 7.95871e-14 0)
(6.75758 9.0489e-14 0)
(6.75758 5.57763e-15 0)
(6.75758 -3.85133e-14 0)
(6.75758 -5.70032e-14 0)
(6.75758 -3.41459e-14 0)
(6.75758 -4.72948e-14 0)
(6.75758 -1.13853e-13 0)
(6.75758 -1.37027e-13 0)
(6.75758 -1.1316e-13 0)
(6.75758 -1.17204e-13 0)
(6.75758 -1.1481e-13 0)
(6.75758 -1.00041e-13 0)
(6.75758 -7.65032e-14 0)
(6.75758 -6.63215e-14 0)
(6.75758 -1.49279e-13 0)
(6.75758 -1.5394e-13 0)
(6.75758 -1.41528e-13 0)
(6.75758 -4.13205e-14 0)
(6.75758 -2.62212e-14 0)
(6.75758 -3.87967e-14 0)
(6.75758 -3.76565e-14 0)
(6.75758 -4.8315e-14 0)
(6.75758 -4.47877e-14 0)
(6.75758 7.48763e-14 0)
(6.75758 2.131e-13 0)
(6.75758 2.5049e-13 0)
(6.75758 2.49286e-13 0)
(6.75758 1.19391e-13 0)
(6.75758 3.79966e-14 0)
(6.75758 -2.88283e-14 0)
(6.75758 -8.88287e-14 0)
(6.75758 -7.48689e-14 0)
(6.75758 7.1179e-15 0)
(6.75758 1.20321e-14 0)
(6.75758 9.675e-15 0)
(6.75758 -8.42145e-15 0)
(6.75758 -2.67546e-14 0)
(6.75758 -1.32223e-14 0)
(6.75758 8.80152e-16 0)
(6.75758 1.08152e-14 0)
(6.75758 3.6673e-16 0)
(6.75758 -3.50861e-14 0)
(6.75758 -4.28907e-14 0)
(6.75758 -9.26827e-15 0)
(6.75758 3.43059e-15 0)
(6.75758 -2.83082e-14 0)
(6.75758 -3.96335e-14 0)
(6.75758 -4.46477e-14 0)
(6.75758 -4.19072e-14 0)
(6.75758 -4.51578e-14 0)
(6.75758 -6.11306e-14 0)
(6.75758 -7.99805e-14 0)
(6.75758 -8.84186e-14 0)
(6.75758 -6.36277e-14 0)
(6.75758 -3.21556e-14 0)
(6.75758 -3.99469e-14 0)
(6.75758 -5.38193e-14 0)
(6.75758 -7.92103e-14 0)
(6.75758 -9.43963e-14 0)
(6.75758 -1.06025e-13 0)
(6.75758 -1.25298e-13 0)
(6.75758 -1.30026e-13 0)
(6.75758 -1.39907e-13 0)
(6.75758 -1.01471e-13 0)
(6.75758 4.99086e-15 0)
(6.75758 3.01085e-14 0)
(6.75758 8.55314e-14 0)
(6.75758 8.34411e-14 0)
(6.75758 2.67046e-15 0)
(6.75758 -7.43128e-15 0)
(6.75758 6.81784e-15 0)
(6.75758 2.57728e-15 0)
(6.75758 2.00035e-16 0)
(6.75758 -5.52762e-15 0)
(6.75758 -1.16353e-15 0)
(6.75758 3.82466e-14 0)
(6.75758 5.2369e-14 0)
(6.75758 6.41244e-14 0)
(6.75758 5.21057e-14 0)
(6.75758 -1.73797e-14 0)
(6.75758 -7.44329e-14 0)
(6.75758 -5.4016e-14 0)
(6.75758 -2.76381e-15 0)
(6.75758 2.40675e-14 0)
(6.75758 4.40076e-16 0)
(6.75758 -6.03438e-15 0)
(6.75758 -1.52326e-14 0)
(6.75758 6.18874e-14 0)
(6.75758 1.03615e-13 0)
(6.75758 8.95555e-14 0)
(6.75758 3.6903e-14 0)
(6.75758 2.61012e-14 0)
(6.75758 -6.05104e-15 0)
(6.75758 -2.24539e-14 0)
(6.75758 4.56746e-16 0)
(6.75758 -7.14457e-15 0)
(6.75758 -7.00588e-14 0)
(6.75758 -9.74902e-14 0)
(6.75758 -7.86069e-14 0)
(6.75758 -2.59578e-14 0)
(6.75758 4.29341e-14 0)
(6.75758 7.38761e-14 0)
(6.75758 8.65349e-14 0)
(6.75758 5.91902e-14 0)
(6.75758 -4.81883e-14 0)
(6.75758 -8.65149e-14 0)
(6.75758 -9.28294e-14 0)
(6.75758 -4.42876e-14 0)
(6.75758 8.3231e-14 0)
(6.75758 1.00047e-13 0)
(6.75758 1.1311e-13 0)
(6.75758 1.62786e-13 0)
(6.75758 2.43042e-15 0)
(6.75758 2.12303e-14 0)
(6.75758 3.55695e-14 0)
(6.75758 3.60562e-14 0)
(6.75758 4.61946e-14 0)
(6.75758 4.76082e-14 0)
(6.75758 3.25323e-14 0)
(6.75758 -3.62063e-15 0)
(6.75758 -1.83165e-14 0)
(6.75758 -1.95167e-14 0)
(6.75758 -4.44343e-14 0)
(6.75758 -5.35526e-14 0)
(6.75758 -6.12539e-14 0)
(6.75758 -6.27375e-14 0)
(6.75758 -3.84866e-14 0)
(6.75758 1.99768e-14 0)
(6.75758 3.70564e-14 0)
(6.75758 4.87951e-14 0)
(6.75758 5.84368e-14 0)
(6.75758 7.15924e-14 0)
(6.75758 8.8832e-14 0)
(6.75758 5.80234e-14 0)
(6.75758 2.95351e-14 0)
(6.75758 -3.48727e-15 0)
(6.75758 1.65028e-14 0)
(6.75758 8.7015e-15 0)
(6.75758 2.56044e-15 0)
(6.75758 1.11686e-14 0)
(6.75758 8.97888e-14 0)
(6.75758 1.12259e-13 0)
(6.75758 1.25612e-13 0)
(6.75758 8.39512e-14 0)
(6.75758 5.12489e-14 0)
(6.75758 2.1287e-14 0)
(6.75758 -3.03052e-14 0)
(6.75758 -3.03286e-14 0)
(6.75758 1.66962e-14 0)
(6.75758 2.87216e-14 0)
(6.75758 -4.4141e-14 0)
(6.75758 -4.08476e-15 0)
(6.75758 -8.5048e-15 0)
(6.75758 8.78485e-15 0)
(6.75758 1.42991e-14 0)
(6.75758 -2.48043e-14 0)
(6.75758 -8.98889e-14 0)
(6.75758 -1.29446e-13 0)
(6.75758 -1.39047e-13 0)
(6.75758 -7.25259e-14 0)
(6.75758 1.31523e-14 0)
(6.75758 2.68113e-14 0)
(6.75758 1.49959e-14 0)
(6.75758 -1.54127e-14 0)
(6.75758 -7.40261e-14 0)
(6.75758 -7.36627e-14 0)
(6.75758 -4.74282e-14 0)
(6.75758 3.60396e-14 0)
(6.75758 7.10756e-14 0)
(6.75758 7.44662e-14 0)
(6.75758 7.45762e-14 0)
(6.75758 1.21361e-13 0)
(6.75758 2.01078e-13 0)
(6.75758 2.26536e-13 0)
(6.75758 1.17937e-13 0)
(6.75758 1.08762e-13 0)
(6.75758 1.11903e-13 0)
(6.75758 7.70433e-14 0)
(6.75758 3.92234e-14 0)
(6.75758 5.92902e-14 0)
(6.75758 1.54463e-13 0)
(6.75758 1.66192e-13 0)
(6.75758 1.38051e-13 0)
(6.75758 5.14255e-14 0)
(6.75758 9.68834e-15 0)
(6.75758 2.18438e-14 0)
(6.75758 7.80802e-15 0)
(6.75758 2.43375e-15 0)
(6.75758 -7.09456e-15 0)
(6.75758 -2.7128e-14 0)
(6.75758 -1.00647e-13 0)
(6.75758 -8.85596e-14 0)
(6.75758 -2.72047e-15 0)
(6.75758 -2.25706e-15 0)
(6.75758 -2.24072e-14 0)
(6.75758 -2.39641e-14 0)
(6.75758 -1.09519e-14 0)
(6.75758 -1.01217e-14 0)
(6.75758 1.67762e-14 0)
(6.75758 2.54211e-14 0)
(6.75758 2.53677e-14 0)
(6.75758 5.52829e-14 0)
(6.75758 1.10112e-13 0)
(6.75758 1.55804e-13 0)
(6.75758 1.38311e-13 0)
(6.75758 1.02704e-13 0)
(6.75758 3.09387e-14 0)
(6.75758 3.52094e-14 0)
(6.75758 7.45329e-14 0)
(6.75758 7.84635e-14 0)
(6.75758 9.39429e-14 0)
(6.75758 9.46263e-14 0)
(6.75758 1.29906e-13 0)
(6.75758 1.49486e-13 0)
(6.75758 1.71123e-13 0)
(6.75758 1.50683e-13 0)
(6.75758 1.43698e-13 0)
(6.75758 1.43621e-13 0)
(6.75758 9.50064e-14 0)
(6.75758 8.06439e-14 0)
(6.75758 1.09416e-13 0)
(6.75758 6.43411e-14 0)
(6.75758 -3.08753e-14 0)
(6.75758 -3.54928e-14 0)
(6.75758 -3.63396e-14 0)
(6.75758 -1.94467e-14 0)
(6.75758 -7.09456e-15 0)
(6.75758 -6.54446e-15 0)
(6.75758 -4.80416e-15 0)
(6.75758 2.92684e-14 0)
(6.75758 2.5021e-14 0)
(6.75758 -1.29302e-15 0)
(6.75758 6.23441e-16 0)
(6.75758 -4.35075e-15 0)
(6.75758 -2.71047e-15 0)
(6.75758 -1.80198e-14 0)
(6.75758 -3.15054e-15 0)
(6.75758 6.90786e-15 0)
(6.75758 7.19458e-15 0)
(6.75758 -5.66098e-15 0)
(6.75758 6.26775e-16 0)
(6.75758 1.64895e-14 0)
(6.75758 3.03186e-14 0)
(6.75758 1.70119e-13 0)
(6.75758 2.26129e-13 0)
(6.75758 2.48113e-13 0)
(6.75758 8.04339e-14 0)
(6.75758 4.47711e-14 0)
(6.75758 1.30789e-14 0)
(6.75758 5.75766e-15 0)
(6.75758 4.00903e-14 0)
(6.75758 1.88333e-14 0)
(6.75758 2.83149e-14 0)
(6.75758 5.63864e-14 0)
(6.75758 1.01061e-13 0)
(6.75758 1.17834e-13 0)
(6.75758 1.35943e-13 0)
(6.75758 1.53793e-13 0)
(6.75758 1.50159e-13 0)
(6.75758 1.12146e-13 0)
(6.75758 4.67781e-14 0)
(6.75758 7.06122e-15 0)
(6.75758 8.48813e-15 0)
(6.75758 -1.69063e-14 0)
(6.75758 -4.20306e-14 0)
(6.75758 3.84533e-14 0)
(6.75758 8.23276e-14 0)
(6.75758 6.69816e-14 0)
(6.75758 3.50761e-14 0)
(6.75758 3.24789e-14 0)
(6.75758 8.02005e-14 0)
(6.75758 4.82857e-14 0)
(6.75758 3.4506e-15 0)
(6.75758 -9.54165e-15 0)
(6.75758 -8.3181e-15 0)
(6.75758 5.55763e-15 0)
(6.75758 -2.71047e-15 0)
(6.75758 -2.68513e-14 0)
(6.75758 -2.58011e-14 0)
(6.75758 -1.09952e-14 0)
(6.75758 -6.5378e-15 0)
(6.75758 -3.81699e-14 0)
(6.75758 -1.13456e-13 0)
(6.75758 -8.1324e-14 0)
(6.75758 -7.49796e-15 0)
(6.75758 1.87332e-14 0)
(6.75758 4.36942e-14 0)
(6.75758 5.59063e-14 0)
(6.75758 4.65714e-14 0)
(6.75758 1.55494e-14 0)
(6.75758 -3.41859e-14 0)
(6.75758 -4.99086e-15 0)
(6.75758 1.80031e-14 0)
(6.75758 3.73565e-14 0)
(6.75758 3.35991e-14 0)
(6.75758 2.66179e-14 0)
(6.75758 -1.25688e-14 0)
(6.75758 -1.40458e-14 0)
(6.75758 2.24172e-14 0)
(6.75758 4.29207e-14 0)
(6.75758 2.08503e-14 0)
(6.75758 -6.07705e-14 0)
(6.75758 -7.09556e-14 0)
(6.75758 -3.32691e-14 0)
(6.75758 4.21706e-14 0)
(6.75758 7.13657e-14 0)
(6.75758 6.24041e-14 0)
(6.75758 7.65832e-14 0)
(6.75758 8.62482e-14 0)
(6.75758 6.60047e-14 0)
(6.75758 7.41228e-14 0)
(6.75758 6.76582e-14 0)
(6.75758 -8.1014e-16 0)
(6.75758 -1.07185e-14 0)
(6.75758 -7.33127e-15 0)
(6.75758 8.81819e-15 0)
(6.75758 2.28139e-14 0)
(6.75758 6.78117e-15 0)
(6.75758 4.77749e-15 0)
(6.75758 1.03918e-14 0)
(6.75758 -2.59378e-15 0)
(6.75758 -5.2389e-14 0)
(6.75758 -1.24558e-13 0)
(6.75758 -1.45745e-13 0)
(6.75758 -1.531e-13 0)
(6.75758 -1.28859e-13 0)
(6.75758 -5.5963e-14 0)
(6.75758 2.19138e-14 0)
(6.75758 2.49676e-14 0)
(6.75758 -1.06352e-15 0)
(6.75758 -4.77316e-14 0)
(6.75758 -6.64081e-14 0)
(6.75758 -5.88802e-14 0)
(6.75758 -3.0692e-14 0)
(6.75758 -4.71781e-14 0)
(6.75758 -6.23541e-14 0)
(6.75758 -6.41244e-14 0)
(6.75758 -2.35374e-14 0)
(6.75758 1.64362e-14 0)
(6.75758 8.60815e-15 0)
(6.75758 1.63061e-14 0)
(6.75758 3.30057e-15 0)
(6.75758 -2.29173e-14 0)
(6.75758 -1.33323e-14 0)
(6.75758 6.66782e-17 0)
(6.75758 -1.11686e-15 0)
(6.75758 -2.58678e-14 0)
(6.75758 -1.66195e-14 0)
(6.75758 1.45292e-14 0)
(6.75758 7.73467e-15 0)
(6.75758 3.0772e-15 0)
(6.75758 3.04152e-14 0)
(6.75758 -6.17773e-15 0)
(6.75758 -3.5006e-15 0)
(6.75758 1.35457e-14 0)
(6.75758 -1.57861e-14 0)
(6.75758 -4.8015e-14 0)
(6.75758 -4.01169e-14 0)
(6.75758 -3.24523e-14 0)
(6.75758 -2.77215e-14 0)
(6.75758 -1.49026e-14 0)
(6.75758 9.80169e-16 0)
(6.75758 1.67229e-14 0)
(6.75758 -1.02118e-14 0)
(6.75758 -6.44211e-14 0)
(6.75758 -7.27159e-14 0)
(6.75758 -5.24657e-14 0)
(6.75758 -3.98636e-14 0)
(6.75758 -4.57079e-14 0)
(6.75758 -6.1894e-14 0)
(6.75758 -1.19414e-13 0)
(6.75758 -1.61871e-13 0)
(6.75758 -1.49526e-13 0)
(6.75758 -9.57399e-14 0)
(6.75758 -3.69497e-14 0)
(6.75758 -7.25259e-14 0)
(6.75758 -9.42296e-14 0)
(6.75758 -6.31176e-14 0)
(6.75758 -4.90118e-14 0)
(6.75758 -7.13657e-14 0)
(6.75758 -8.21342e-14 0)
(6.75758 -6.71916e-14 0)
(6.75758 2.06602e-14 0)
(6.75758 5.14189e-14 0)
(6.75758 4.56079e-14 0)
(6.75758 -6.26775e-15 0)
(6.75758 -3.57728e-15 0)
(6.75758 -2.61278e-14 0)
(6.75758 -4.10238e-14 0)
(6.75758 -4.39343e-14 0)
(6.75758 -4.92052e-14 0)
(6.75758 -2.19381e-14 0)
(6.75758 1.23355e-16 0)
(6.75758 8.79819e-15 0)
(6.75758 4.23406e-16 0)
(6.75758 -1.19687e-15 0)
(6.75758 -3.31724e-15 0)
(6.75758 -2.04369e-15 0)
(6.75758 -6.65448e-15 0)
(6.75758 3.4476e-14 0)
(6.75758 3.1172e-14 0)
(6.75758 3.60429e-14 0)
(6.75758 4.84817e-14 0)
(6.75758 3.74831e-14 0)
(6.75758 3.46993e-14 0)
(6.75758 3.36658e-14 0)
(6.75758 7.5013e-16 0)
(6.75758 -2.54244e-14 0)
(6.75758 -2.79115e-14 0)
(6.75758 8.14141e-15 0)
(6.75758 -6.52113e-15 0)
(6.75758 -2.57644e-14 0)
(6.75758 -3.13688e-14 0)
(6.75758 -2.69813e-14 0)
(6.75758 2.46643e-14 0)
(6.75758 -2.21705e-15 0)
(6.75758 -1.05315e-13 0)
(6.75758 -1.56854e-13 0)
(6.75758 -1.50076e-13 0)
(6.75758 -7.86269e-14 0)
(6.75758 -1.08652e-13 0)
(6.75758 -1.21518e-13 0)
(6.75758 -9.49097e-14 0)
(6.75758 -1.68329e-14 0)
(6.75758 -3.39059e-15 0)
(6.75758 -4.92418e-15 0)
(6.75758 -7.87803e-15 0)
(6.75758 -1.26188e-14 0)
(6.75758 -1.93467e-14 0)
(6.75758 -1.23855e-14 0)
(6.75758 -2.56111e-14 0)
(6.75758 -1.72331e-13 0)
(6.75758 1.07519e-14 0)
(6.75758 1.5216e-14 0)
(6.75758 1.30689e-15 0)
(6.75758 6.88452e-15 0)
(6.75758 2.92184e-14 0)
(6.75758 3.50327e-14 0)
(6.75758 5.83801e-14 0)
(6.75758 6.87185e-14 0)
(6.75758 4.35842e-14 0)
(6.75758 2.3224e-14 0)
(6.75758 1.22521e-14 0)
(6.75758 1.66662e-14 0)
(6.75758 4.13271e-14 0)
(6.75758 4.56445e-14 0)
(6.75758 2.10903e-14 0)
(6.75758 -7.62798e-15 0)
(6.75758 -1.98134e-14 0)
(6.75758 2.57845e-14 0)
(6.75758 -6.49779e-15 0)
(6.75758 -6.66582e-14 0)
(6.75758 -1.06205e-13 0)
(6.75758 -1.05832e-13 0)
(6.75758 -6.1694e-14 0)
(6.75758 -7.26359e-14 0)
(6.75758 -7.57998e-14 0)
(6.75758 -1.10452e-13 0)
(6.75758 -1.57867e-13 0)
(6.75758 -1.25942e-13 0)
(6.75758 -9.39062e-14 0)
(6.75758 -8.50747e-14 0)