/*--------------------------------*- C++ -*----------------------------------*\
| =========                 |                                                 |
| \\      /  F ield         | OpenFOAM: The Open Source CFD Toolbox           |
|  \\    /   O peration     | Version:  2206                                  |
|   \\  /    A nd           | Website:  www.openfoam.com                      |
|    \\/     M anipulation  |                                                 |
\*---------------------------------------------------------------------------*/
FoamFile
{
    version     2.0;
    format      ascii;
    arch        "LSB;label=32;scalar=64";
    class       volVectorField;
    location    "0.14";
    object      U;
}
// * * * * * * * * * * * * * * * * * * * * * * * * * * * * * * * * * * * * * //

dimensions      [0 1 -1 0 0 0 0];

internalField   nonuniform List<vector> 
75
(
(5.58586 -3.73648e-15 0)
(5.58586 -3.78607e-15 0)
(5.58586 3.54228e-17 0)
(5.58586 -1.02518e-16 0)
(5.58586 -4.42576e-16 0)
(5.58586 -4.11321e-16 0)
(5.58586 -4.58538e-15 0)
(5.58586 -4.49369e-15 0)
(5.58586 -4.37617e-15 0)
(5.58586 -3.94859e-15 0)
(5.58586 -3.76398e-15 0)
(5.58586 -3.69605e-15 0)
(5.58586 -7.03913e-15 0)
(5.58586 -6.59864e-15 0)
(5.58586 -1.29774e-15 0)
(5.58586 -3.49144e-15 0)
(5.58586 -6.47612e-16 0)
(5.58586 2.58336e-15 0)
(5.58586 5.70932e-15 0)
(5.58586 1.06826e-14 0)
(5.58586 3.46852e-15 0)
(5.58586 3.24306e-15 0)
(5.58586 5.64681e-15 0)
(5.58586 1.12011e-14 0)
(5.58586 1.11694e-14 0)
(5.55812 -0.0160511 0)
(5.50759 0.0873033 0)
(5.46354 0.0867849 0)
(5.39516 0.267489 0)
(5.35513 0.301355 0)
(5.26813 0.510477 0)
(5.23522 0.574817 0)
(5.1287 0.781386 0)
(5.1593 0.905851 0)
(4.99509 1.09692 0)
(5.58645 -0.0015654 0)
(5.58545 0.00101333 0)
(5.58906 -0.00916212 0)
(5.56414 0.046782 0)
(5.54549 0.0937649 0)
(5.45162 0.318383 0)
(5.39987 0.504921 0)
(5.21427 0.934203 0)
(5.17035 1.21369 0)
(4.89229 1.68563 0)
(5.58587 -3.18872e-05 0)
(5.58587 -3.22638e-05 0)
(5.5859 -0.000125779 0)
(5.58587 -8.84891e-05 0)
(5.58628 -0.00103884 0)
(5.5849 0.00244681 0)
(5.58641 -0.00229518 0)
(5.56807 0.0646086 0)
(5.55853 0.108858 0)
(5.30338 0.843336 0)
(5.58586 3.63997e-07 0)
(5.58586 -2.65543e-06 0)
(5.58586 -1.89398e-06 0)
(5.58586 -9.10747e-06 0)
(5.5859 -0.000130064 0)
(5.58589 -0.000124118 0)
(5.58589 -0.000125498 0)
(5.58597 -0.000590597 0)
(5.58564 0.0013938 0)
(5.50415 0.282845 0)
(5.58586 4.06523e-08 0)
(5.58586 1.52961e-08 0)
(5.58586 4.15175e-08 0)
(5.58586 -6.20407e-08 0)
(5.58586 9.67169e-07 0)
(5.58587 -2.08251e-05 0)
(5.58587 -1.89425e-05 0)
(5.58592 -0.000150117 0)
(5.58594 -0.000136067 0)
(5.57495 0.0203268 0)
)
;

boundaryField
{
    inlet
    {
        type            fixedValue;
        value           uniform (5.58586 0 0);
    }
    outlet
    {
        type            zeroGradient;
    }
    bottom
    {
        type            symmetryPlane;
    }
    top
    {
        type            symmetryPlane;
    }
    obstacle
    {
        type            slip;
    }
    defaultFaces
    {
        type            empty;
    }
}


// ************************************************************************* //
