/*--------------------------------*- C++ -*----------------------------------*\
| =========                 |                                                 |
| \\      /  F ield         | OpenFOAM: The Open Source CFD Toolbox           |
|  \\    /   O peration     | Version:  2206                                  |
|   \\  /    A nd           | Website:  www.openfoam.com                      |
|    \\/     M anipulation  |                                                 |
\*---------------------------------------------------------------------------*/
FoamFile
{
    version     2.0;
    format      ascii;
    arch        "LSB;label=32;scalar=64";
    class       volVectorField;
    location    "0.16";
    object      U;
}
// * * * * * * * * * * * * * * * * * * * * * * * * * * * * * * * * * * * * * //

dimensions      [0 1 -1 0 0 0 0];

internalField   nonuniform List<vector> 
4800
(
(6.35354 4.33408e-17 0)
(6.35354 1.93033e-14 0)
(6.35354 5.27958e-14 0)
(6.35354 6.10672e-14 0)
(6.35354 2.88583e-14 0)
(6.35354 5.94103e-15 0)
(6.35354 1.51126e-14 0)
(6.35354 3.90334e-14 0)
(6.35354 3.63729e-14 0)
(6.35354 2.80782e-14 0)
(6.35354 8.60149e-16 0)
(6.35354 4.02403e-15 0)
(6.35354 3.99036e-14 0)
(6.35354 8.29277e-14 0)
(6.35354 9.65433e-14 0)
(6.35354 8.75551e-14 0)
(6.35354 8.08706e-14 0)
(6.35354 -3.94368e-14 0)
(6.35354 -1.1653e-13 0)
(6.35354 -1.135e-13 0)
(6.35354 -9.2766e-14 0)
(6.35354 -8.45713e-14 0)
(6.35354 1.19687e-15 0)
(6.35354 1.34323e-14 0)
(6.35354 -1.30656e-14 0)
(6.35354 -1.05552e-14 0)
(6.35354 1.56027e-15 0)
(6.35354 3.76698e-14 0)
(6.35354 9.8357e-14 0)
(6.35354 6.43244e-14 0)
(6.35354 -1.98234e-14 0)
(6.35354 -5.06354e-14 0)
(6.35354 -5.10121e-14 0)
(6.35354 -4.4281e-14 0)
(6.35354 -3.95535e-14 0)
(6.35354 -5.06988e-14 0)
(6.35354 -7.19458e-14 0)
(6.35354 -6.17707e-14 0)
(6.35354 2.66513e-14 0)
(6.35354 6.3701e-14 0)
(6.35354 -6.05104e-15 0)
(6.35354 1.88933e-14 0)
(6.35354 3.04253e-14 0)
(6.35354 8.89154e-15 0)
(6.35354 -1.95467e-14 0)
(6.35354 -4.4541e-14 0)
(6.35354 -2.80715e-14 0)
(6.35354 2.8675e-14 0)
(6.35354 4.90185e-14 0)
(6.35354 3.871e-14 0)
(6.35354 4.67414e-15 0)
(6.35354 -3.97269e-14 0)
(6.35354 -9.05823e-15 0)
(6.35354 6.71783e-14 0)
(6.35354 9.39796e-14 0)
(6.35354 7.73767e-14 0)
(6.35354 7.72567e-14 0)
(6.35354 -3.25723e-14 0)
(6.35354 -1.56974e-13 0)
(6.35354 -1.69983e-13 0)
(6.35354 -1.34877e-13 0)
(6.35354 -1.03591e-13 0)
(6.35354 -1.42358e-14 0)
(6.35354 3.43059e-15 0)
(6.35354 -1.53793e-14 0)
(6.35354 -1.82031e-14 0)
(6.35354 -3.69731e-15 0)
(6.35354 1.5336e-15 0)
(6.35354 4.79549e-14 0)
(6.35354 6.57113e-14 0)
(6.35354 6.35643e-14 0)
(6.35354 5.10088e-14 0)
(6.35354 2.92884e-14 0)
(6.35354 -2.06102e-14 0)
(6.35354 -2.65012e-14 0)
(6.35354 -4.29241e-14 0)
(6.35354 -7.24925e-14 0)
(6.35354 -1.62995e-14 0)
(6.35354 1.65502e-13 0)
(6.35354 1.82148e-13 0)
(6.35354 1.05018e-15 0)
(6.35354 8.25476e-15 0)
(6.35354 7.53463e-16 0)
(6.35354 -1.44592e-14 0)
(6.35354 -1.95467e-14 0)
(6.35354 1.29689e-15 0)
(6.35354 -7.44462e-15 0)
(6.35354 8.03472e-16 0)
(6.35354 7.25425e-14 0)
(6.35354 7.68833e-14 0)
(6.35354 5.4176e-14 0)
(6.35354 1.83465e-14 0)
(6.35354 2.54711e-15 0)
(6.35354 6.24174e-14 0)
(6.35354 7.96704e-14 0)
(6.35354 5.38026e-14 0)
(6.35354 -3.54728e-14 0)
(6.35354 -4.94652e-14 0)
(6.35354 -3.47227e-14 0)
(6.35354 -2.96485e-14 0)
(6.35354 -6.67115e-15 0)
(6.35354 2.43809e-14 0)
(6.35354 4.86484e-14 0)
(6.35354 -9.03489e-15 0)
(6.35354 -2.6998e-14 0)
(6.35354 -2.22705e-14 0)
(6.35354 -1.81065e-14 0)
(6.35354 -7.76801e-15 0)
(6.35354 -1.30189e-14 0)
(6.35354 -3.04686e-14 0)
(6.35354 -7.51696e-14 0)
(6.35354 -7.26559e-14 0)
(6.35354 -1.32473e-13 0)
(6.35354 -1.87666e-13 0)
(6.35354 -1.23928e-13 0)
(6.35354 -3.94535e-14 0)
(6.35354 1.08752e-14 0)
(6.35354 4.6408e-14 0)
(6.35354 1.66059e-13 0)
(6.35354 2.18603e-13 0)
(6.35354 2.08836e-14 0)
(6.35354 2.5301e-14 0)
(6.35354 3.80066e-14 0)
(6.35354 4.71581e-14 0)
(6.35354 1.01728e-13 0)
(6.35354 1.33343e-13 0)
(6.35354 7.00721e-14 0)
(6.35354 1.23521e-14 0)
(6.35354 2.42942e-14 0)
(6.35354 6.29175e-14 0)
(6.35354 8.07606e-14 0)
(6.35354 9.04323e-14 0)
(6.35354 7.15257e-14 0)
(6.35354 4.98586e-14 0)
(6.35354 5.84034e-14 0)
(6.35354 5.64998e-14 0)
(6.35354 1.60661e-14 0)
(6.35354 3.61396e-15 0)
(6.35354 3.6563e-14 0)
(6.35354 3.37192e-14 0)
(6.35354 -9.53498e-16 0)
(6.35354 -3.95535e-14 0)
(6.35354 -1.21288e-14 0)
(6.35354 5.49462e-14 0)
(6.35354 1.3378e-13 0)
(6.35354 1.42378e-13 0)
(6.35354 1.27542e-13 0)
(6.35354 1.5635e-13 0)
(6.35354 1.80968e-13 0)
(6.35354 1.28279e-13 0)
(6.35354 4.4331e-14 0)
(6.35354 -2.83282e-14 0)
(6.35354 -5.63564e-14 0)
(6.35354 -5.02954e-14 0)
(6.35354 -2.07903e-14 0)
(6.35354 5.70799e-14 0)
(6.35354 7.37894e-14 0)
(6.35354 8.21208e-14 0)
(6.35354 9.74702e-14 0)
(6.35354 1.25865e-13 0)
(6.35354 5.67431e-15 0)
(6.35354 -4.90751e-15 0)
(6.35354 -1.89299e-14 0)
(6.35354 -3.40059e-15 0)
(6.35354 3.40025e-14 0)
(6.35354 4.38309e-14 0)
(6.35354 4.25674e-14 0)
(6.35354 -1.50259e-14 0)
(6.35354 -5.52295e-14 0)
(6.35354 -3.6803e-14 0)
(6.35354 2.27573e-14 0)
(6.35354 2.81415e-14 0)
(6.35354 3.0982e-14 0)
(6.35354 2.05235e-14 0)
(6.35354 3.91801e-14 0)
(6.35354 9.56765e-14 0)
(6.35354 1.17197e-13 0)
(6.35354 1.01714e-13 0)
(6.35354 6.94753e-14 0)
(6.35354 1.28956e-14 0)
(6.35354 -1.76164e-14 0)
(6.35354 -3.88267e-14 0)
(6.35354 -2.56244e-14 0)
(6.35354 1.99734e-14 0)
(6.35354 7.95304e-14 0)
(6.35354 8.40178e-14 0)
(6.35354 1.28799e-13 0)
(6.35354 1.98468e-13 0)
(6.35354 2.21798e-13 0)
(6.35354 1.33873e-13 0)
(6.35354 6.80251e-14 0)
(6.35354 7.81302e-14 0)
(6.35354 1.30092e-13 0)
(6.35354 1.44545e-13 0)
(6.35354 1.22078e-13 0)
(6.35354 9.31194e-14 0)
(6.35354 8.97322e-14 0)
(6.35354 1.04411e-13 0)
(6.35354 1.43091e-13 0)
(6.35354 1.61674e-13 0)
(6.35354 -2.18204e-14 0)
(6.35354 -4.4121e-14 0)
(6.35354 -6.77317e-14 0)
(6.35354 -7.94771e-14 0)
(6.35354 -5.52295e-14 0)
(6.35354 -2.00635e-14 0)
(6.35354 -2.62045e-15 0)
(6.35354 -7.53797e-15 0)
(6.35354 -2.72714e-14 0)
(6.35354 -1.89166e-14 0)
(6.35354 -4.14205e-14 0)
(6.35354 -5.92469e-14 0)
(6.35354 -5.78333e-14 0)
(6.35354 -5.49028e-14 0)
(6.35354 -2.55144e-14 0)
(6.35354 -1.35423e-14 0)
(6.35354 2.52377e-15 0)
(6.35354 -4.54712e-14 0)
(6.35354 -7.11289e-14 0)
(6.35354 -7.43262e-14 0)
(6.35354 -4.35309e-14 0)
(6.35354 3.52728e-15 0)
(6.35354 7.36461e-15 0)
(6.35354 5.59763e-15 0)
(6.35354 -3.27823e-14 0)
(6.35354 -1.66962e-14 0)
(6.35354 1.06285e-14 0)
(6.35354 1.72463e-14 0)
(6.35354 2.16104e-14 0)
(6.35354 1.11586e-14 0)
(6.35354 7.78334e-14 0)
(6.35354 8.26409e-14 0)
(6.35354 5.10021e-14 0)
(6.35354 4.85484e-14 0)
(6.35354 8.98755e-14 0)
(6.35354 7.62732e-14 0)
(6.35354 6.80651e-14 0)
(6.35354 9.50998e-14 0)
(6.35354 1.35557e-14 0)
(6.35354 1.23474e-13 0)
(6.35354 2.74047e-15 0)
(6.35354 -1.59194e-14 0)
(6.35354 -1.05952e-14 0)
(6.35354 -2.36708e-14 0)
(6.35354 -3.20022e-14 0)
(6.35354 -1.37724e-14 0)
(6.35354 6.13439e-16 0)
(6.35354 4.93919e-14 0)
(6.35354 7.86002e-14 0)
(6.35354 8.52914e-14 0)
(6.35354 -2.59712e-15 0)
(6.35354 -6.26775e-14 0)
(6.35354 -1.32119e-13 0)
(6.35354 -1.52733e-13 0)
(6.35354 -1.52036e-13 0)
(6.35354 -1.49272e-13 0)
(6.35354 -1.00087e-13 0)
(6.35354 -9.03889e-14 0)
(6.35354 -5.29892e-14 0)
(6.35354 -7.47796e-15 0)
(6.35354 3.19722e-15 0)
(6.35354 2.64279e-14 0)
(6.35354 2.05069e-14 0)
(6.35354 1.09119e-14 0)
(6.35354 2.12737e-14 0)
(6.35354 4.09971e-14 0)
(6.35354 3.55061e-14 0)
(6.35354 -5.38226e-14 0)
(6.35354 -7.16457e-14 0)
(6.35354 -6.83018e-14 0)
(6.35354 -3.50361e-14 0)
(6.35354 -4.02836e-14 0)
(6.35354 -5.90102e-14 0)
(6.35354 -4.56312e-14 0)
(6.35354 -1.74063e-14 0)
(6.35354 -1.79864e-14 0)
(6.35354 -2.15704e-15 0)
(6.35354 2.4811e-14 0)
(6.35354 -1.73463e-14 0)
(6.35354 -3.60525e-14 0)
(6.35354 6.22441e-15 0)
(6.35354 1.07352e-15 0)
(6.35354 -5.55429e-15 0)
(6.35354 -1.10719e-14 0)
(6.35354 -3.41492e-14 0)
(6.35354 -4.31841e-14 0)
(6.35354 9.28827e-15 0)
(6.35354 1.23121e-14 0)
(6.35354 -8.10807e-15 0)
(6.35354 -3.54895e-14 0)
(6.35354 -6.60281e-14 0)
(6.35354 -3.55261e-14 0)
(6.35354 -2.50077e-14 0)
(6.35354 -5.94269e-14 0)
(6.35354 -8.94354e-14 0)
(6.35354 -1.06115e-13 0)
(6.35354 -9.89538e-14 0)
(6.35354 -6.88085e-14 0)
(6.35354 -2.88383e-14 0)
(6.35354 1.03298e-13 0)
(6.35354 1.41178e-13 0)
(6.35354 1.28496e-13 0)
(6.35354 4.15672e-14 0)
(6.35354 -9.20492e-15 0)
(6.35354 9.38495e-15 0)
(6.35354 3.19155e-14 0)
(6.35354 6.51112e-15 0)
(6.35354 -3.72764e-14 0)
(6.35354 -1.02131e-13 0)
(6.35354 -1.04268e-13 0)
(6.35354 -8.25276e-14 0)
(6.35354 -8.05506e-14 0)
(6.35354 -1.31016e-13 0)
(6.35354 -2.01205e-13 0)
(6.35354 -1.58834e-13 0)
(6.35354 -1.05085e-14 0)
(6.35354 4.09804e-14 0)
(6.35354 4.43277e-14 0)
(6.35354 -2.20405e-14 0)
(6.35354 -4.3167e-14 0)
(6.35354 -1.26288e-14 0)
(6.35354 -1.61495e-14 0)
(6.35354 -5.13755e-15 0)
(6.35354 -4.27741e-15 0)
(6.35354 -1.40024e-14 0)
(6.35354 -1.98634e-14 0)
(6.35354 1.61695e-15 0)
(6.35354 3.31391e-14 0)
(6.35354 1.77731e-14 0)
(6.35354 -3.2649e-14 0)
(6.35354 -6.87352e-14 0)
(6.35354 -5.1949e-14 0)
(6.35354 -1.59994e-14 0)
(6.35354 -2.2964e-14 0)
(6.35354 -5.4296e-14 0)
(6.35354 -7.61165e-14 0)
(6.35354 -1.05375e-13 0)
(6.35354 -1.27929e-13 0)
(6.35354 -1.20911e-13 0)
(6.35354 -2.15204e-14 0)
(6.35354 4.62613e-14 0)
(6.35354 5.98203e-14 0)
(6.35354 4.77282e-14 0)
(6.35354 2.23972e-14 0)
(6.35354 3.71264e-14 0)
(6.35354 6.06038e-14 0)
(6.35354 -3.91134e-14 0)
(6.35354 -5.87301e-14 0)
(6.35354 -7.87803e-15 0)
(6.35354 6.16473e-14 0)
(6.35354 4.65147e-14 0)
(6.35354 -1.938e-14 0)
(6.35354 -6.67415e-14 0)
(6.35354 -7.31626e-14 0)
(6.35354 -5.32192e-14 0)
(6.35354 -2.43042e-14 0)
(6.35354 1.47592e-14 0)
(6.35354 2.91784e-14 0)
(6.35354 2.20138e-14 0)
(6.35354 -7.62668e-14 0)
(6.35354 -2.35374e-15 0)
(6.35354 1.5216e-14 0)
(6.35354 3.24656e-14 0)
(6.35354 2.22205e-14 0)
(6.35354 2.13404e-14 0)
(6.35354 4.40409e-15 0)
(6.35354 -2.19171e-14 0)
(6.35354 1.25622e-14 0)
(6.35354 2.06902e-14 0)
(6.35354 4.12738e-15 0)
(6.35354 1.50226e-14 0)
(6.35354 4.30308e-14 0)
(6.35354 5.14189e-14 0)
(6.35354 2.87216e-14 0)
(6.35354 -8.92154e-15 0)
(6.35354 -3.09187e-14 0)
(6.35354 -7.28459e-15 0)
(6.35354 -1.12353e-14 0)
(6.35354 -3.40459e-14 0)
(6.35354 -4.15905e-14 0)
(6.35354 -2.81882e-14 0)
(6.35354 6.25775e-15 0)
(6.35354 3.75498e-14 0)
(6.35354 -8.05839e-14 0)
(6.35354 -1.32116e-13 0)
(6.35354 -1.89293e-13 0)
(6.35354 -1.67229e-13 0)
(6.35354 -5.00253e-14 0)
(6.35354 3.98435e-14 0)
(6.35354 5.56829e-14 0)
(6.35354 4.31208e-14 0)
(6.35354 1.51193e-14 0)
(6.35354 6.86585e-14 0)
(6.35354 9.38862e-14 0)
(6.35354 8.73851e-14 0)
(6.35354 2.98685e-14 0)
(6.35354 -1.38551e-13 0)
(6.35354 -2.12573e-13 0)
(6.35354 -1.92347e-13 0)
(6.35354 -1.83384e-13 0)
(6.35354 1.58394e-14 0)
(6.35354 3.01919e-14 0)
(6.35354 1.42558e-14 0)
(6.35354 -8.88487e-15 0)
(6.35354 -2.02435e-14 0)
(6.35354 -5.30358e-14 0)
(6.35354 -9.32828e-14 0)
(6.35354 -1.10416e-13 0)
(6.35354 -9.71068e-14 0)
(6.35354 -9.43496e-14 0)
(6.35354 6.08105e-15 0)
(6.35354 7.99338e-14 0)
(6.35354 1.28312e-13 0)
(6.35354 1.46825e-13 0)
(6.35354 1.48682e-13 0)
(6.35354 9.33661e-14 0)
(6.35354 5.57963e-14 0)
(6.35354 5.61364e-14 0)
(6.35354 -2.60945e-14 0)
(6.35354 -1.73253e-13 0)
(6.35354 -1.78044e-13 0)
(6.35354 -1.49052e-13 0)
(6.35354 -9.68834e-14 0)
(6.35354 -1.1767e-13 0)
(6.35354 -1.41821e-13 0)
(6.35354 -1.3494e-13 0)
(6.35354 -6.74283e-14 0)
(6.35354 1.78031e-15 0)
(6.35354 -7.1169e-14 0)
(6.35354 -8.08073e-14 0)
(6.35354 -9.2866e-14 0)
(6.35354 -2.3364e-14 0)
(6.35354 6.80184e-14 0)
(6.35354 5.44827e-14 0)
(6.35354 1.53927e-14 0)
(6.35354 -2.14237e-14 0)
(6.35354 -3.92301e-14 0)
(6.35354 -8.7135e-14 0)
(6.35354 -1.345e-13 0)
(6.35354 -1.21378e-13 0)
(6.35354 -6.30109e-16 0)
(6.35354 -2.70047e-16 0)
(6.35354 -2.39841e-14 0)
(6.35354 -2.26372e-14 0)
(6.35354 -1.25955e-14 0)
(6.35354 -1.69996e-14 0)
(6.35354 -2.20805e-14 0)
(6.35354 -5.10221e-14 0)
(6.35354 -1.13813e-13 0)
(6.35354 -9.41396e-14 0)
(6.35354 -1.60294e-14 0)
(6.35354 -3.53728e-15 0)
(6.35354 -1.30189e-14 0)
(6.35354 1.30356e-14 0)
(6.35354 1.24488e-14 0)
(6.35354 1.49292e-14 0)
(6.35354 -4.37742e-15 0)
(6.35354 -2.24139e-14 0)
(6.35354 -3.80832e-14 0)
(6.35354 -4.67681e-14 0)
(6.35354 -6.40611e-14 0)
(6.35354 -7.76601e-14 0)
(6.35354 -6.60514e-14 0)
(6.35354 -3.27523e-14 0)
(6.35354 -5.9877e-15 0)
(6.35354 5.43094e-15 0)
(6.35354 3.01119e-14 0)
(6.35354 1.00784e-14 0)
(6.35354 -8.80419e-14 0)
(6.35354 -1.19091e-13 0)
(6.35354 -4.86517e-14 0)
(6.35354 1.97834e-14 0)
(6.35354 3.33058e-14 0)
(6.35354 5.99637e-14 0)
(6.35354 1.17454e-13 0)
(6.35354 9.19759e-14 0)
(6.35354 2.08236e-14 0)
(6.35354 7.9047e-15 0)
(6.35354 1.83665e-14 0)
(6.35354 -1.7255e-14 0)
(6.35354 -8.22475e-15 0)
(6.35354 -1.54093e-14 0)
(6.35354 -4.17739e-15 0)
(6.35354 1.81265e-14 0)
(6.35354 7.9297e-14 0)
(6.35354 1.35237e-13 0)
(6.35354 1.54263e-13 0)
(6.35354 1.10052e-13 0)
(6.35354 5.91502e-14 0)
(6.35354 5.92436e-15 0)
(6.35354 -2.05802e-14 0)
(6.35354 -2.34807e-14 0)
(6.35354 -5.22524e-14 0)
(6.35354 -7.48163e-14 0)
(6.35354 -5.07821e-14 0)
(6.35354 -3.41026e-14 0)
(6.35354 -2.95718e-14 0)
(6.35354 -3.98802e-14 0)
(6.35354 -8.4648e-15 0)
(6.35354 -1.10352e-14 0)
(6.35354 -8.79385e-14 0)
(6.35354 -1.51546e-13 0)
(6.35354 -1.68986e-13 0)
(6.35354 -1.10942e-13 0)
(6.35354 1.73263e-14 0)
(6.35354 8.16508e-14 0)
(6.35354 5.75066e-14 0)
(6.35354 4.83417e-14 0)
(6.35354 5.5893e-14 0)
(6.35354 7.14457e-14 0)
(6.35354 6.63248e-14 0)
(6.35354 7.01921e-14 0)
(6.35354 4.70981e-14 0)
(6.35354 -3.29957e-14 0)
(6.35354 -7.07989e-14 0)
(6.35354 -5.79433e-15 0)
(6.35354 5.2119e-14 0)
(6.35354 7.13657e-14 0)
(6.35354 8.53181e-14 0)
(6.35354 6.58369e-15 0)
(6.35354 6.70116e-16 0)
(6.35354 1.911e-14 0)
(6.35354 5.24424e-14 0)
(6.35354 5.5953e-14 0)
(6.35354 6.73316e-14 0)
(6.35354 6.53213e-14 0)
(6.35354 1.28529e-13 0)
(6.35354 1.47686e-13 0)
(6.35354 1.52936e-13 0)
(6.35354 1.48732e-13 0)
(6.35354 1.11433e-13 0)
(6.35354 1.16473e-13 0)
(6.35354 9.93638e-14 0)
(6.35354 6.41044e-14 0)
(6.35354 2.63546e-14 0)
(6.35354 2.06802e-14 0)
(6.35354 2.48376e-15 0)
(6.35354 3.21422e-14 0)
(6.35354 1.01157e-13 0)
(6.35354 1.39431e-13 0)
(6.35354 6.97354e-14 0)
(6.35354 1.85999e-14 0)
(6.35354 -8.03472e-16 0)
(6.35354 -4.25073e-15 0)
(6.35354 5.84534e-14 0)
(6.35354 8.02805e-14 0)
(6.35354 4.07837e-14 0)
(6.35354 1.81431e-14 0)
(6.35354 3.81233e-14 0)
(6.35354 7.92537e-14 0)
(6.35354 1.11866e-13 0)
(6.35354 1.42788e-13 0)
(6.35354 6.05104e-15 0)
(6.35354 -1.3445e-13 0)
(6.35354 -7.08056e-14 0)
(6.35354 -5.88568e-14 0)
(6.35354 -4.80816e-14 0)
(6.35354 -2.40375e-15 0)
(6.35354 4.09937e-14 0)
(6.35354 8.55267e-14 0)
(6.35354 1.93367e-15 0)
(6.35354 5.39093e-15 0)
(6.35354 4.33408e-15 0)
(6.35354 6.03438e-16 0)
(6.35354 -2.40542e-14 0)
(6.35354 -5.72699e-14 0)
(6.35354 -8.20508e-14 0)
(6.35354 -8.3111e-14 0)
(6.35354 -8.60515e-14 0)
(6.35354 -2.85016e-14 0)
(6.35354 8.1014e-15 0)
(6.35354 2.32173e-14 0)
(6.35354 3.90734e-14 0)
(6.35354 5.06454e-14 0)
(6.35354 9.11491e-15 0)
(6.35354 -2.08969e-14 0)
(6.35354 -5.27091e-14 0)
(6.35354 5.41494e-14 0)
(6.35354 1.62765e-13 0)
(6.35354 1.77781e-13 0)
(6.35354 1.93777e-13 0)
(6.35354 1.46929e-13 0)
(6.35354 1.59898e-13 0)
(6.35354 1.86486e-13 0)
(6.35354 2.4852e-13 0)
(6.35354 1.88426e-13 0)
(6.35354 1.01808e-13 0)
(6.35354 6.94053e-14 0)
(6.35354 4.96319e-14 0)
(6.35354 -3.23056e-15 0)
(6.35354 1.76697e-15 0)
(6.35354 7.3306e-14 0)
(6.35354 1.24612e-13 0)
(6.35354 8.41712e-14 0)
(6.35354 2.49176e-14 0)
(6.35354 9.94838e-15 0)
(6.35354 -5.5733e-14 0)
(6.35354 -1.30459e-13 0)
(6.35354 -7.97804e-14 0)
(6.35354 2.67382e-14 0)
(6.35354 -5.09088e-15 0)
(6.35354 -2.32707e-14 0)
(6.35354 -3.17088e-14 0)
(6.35354 -2.73047e-14 0)
(6.35354 -4.52245e-14 0)
(6.35354 -7.70266e-14 0)
(6.35354 -1.25472e-13 0)
(6.35354 -1.40141e-13 0)
(6.35354 -1.01444e-13 0)
(6.35354 -6.30609e-14 0)
(6.35354 -5.46628e-14 0)
(6.35354 -4.18139e-14 0)
(6.35354 -3.4976e-14 0)
(6.35354 -2.22638e-14 0)
(6.35354 2.83082e-14 0)
(6.35354 3.89434e-14 0)
(6.35354 4.52311e-14 0)
(6.35354 6.73383e-14 0)
(6.35354 1.28956e-13 0)
(6.35354 1.64418e-13 0)
(6.35354 1.59114e-13 0)
(6.35354 1.73923e-13 0)
(6.35354 2.1057e-13 0)
(6.35354 2.09119e-13 0)
(6.35354 2.16414e-13 0)
(6.35354 1.97631e-13 0)
(6.35354 1.5682e-13 0)
(6.35354 1.20561e-13 0)
(6.35354 5.52595e-14 0)
(6.35354 5.77733e-14 0)
(6.35354 5.97103e-14 0)
(6.35354 4.84984e-14 0)
(6.35354 2.6738e-14 0)
(6.35354 8.99922e-14 0)
(6.35354 1.3595e-13 0)
(6.35354 1.55724e-13 0)
(6.35354 1.80041e-13 0)
(6.35354 8.40478e-14 0)
(6.35354 5.92336e-14 0)
(6.35354 2.72909e-14 0)
(6.35354 4.47744e-15 0)
(6.35354 -1.26355e-15 0)
(6.35354 -2.13604e-14 0)
(6.35354 -2.56611e-14 0)
(6.35354 -1.59528e-14 0)
(6.35354 5.10421e-15 0)
(6.35354 1.02018e-14 0)
(6.35354 5.17423e-15 0)
(6.35354 1.11386e-14 0)
(6.35354 3.70764e-14 0)
(6.35354 5.36926e-14 0)
(6.35354 4.49978e-14 0)
(6.35354 2.54577e-14 0)
(6.35354 3.42726e-15 0)
(6.35354 7.11456e-15 0)
(6.35354 7.715e-14 0)
(6.35354 1.22254e-13 0)
(6.35354 1.14346e-13 0)
(6.35354 6.30209e-14 0)
(6.35354 9.15491e-15 0)
(6.35354 -3.32057e-15 0)
(6.35354 1.5256e-14 0)
(6.35354 -5.04754e-15 0)
(6.35354 -1.78998e-14 0)
(6.35354 -2.51543e-14 0)
(6.35354 -4.0567e-14 0)
(6.35354 -3.27457e-14 0)
(6.35354 -5.89835e-14 0)
(6.35354 -3.36958e-14 0)
(6.35354 -2.23705e-15 0)
(6.35354 -4.92085e-15 0)
(6.35354 -6.05905e-14 0)
(6.35354 -1.95e-14 0)
(6.35354 -1.92167e-14 0)
(6.35354 -3.875e-14 0)
(6.35354 2.07369e-15 0)
(6.35354 2.93751e-14 0)
(6.35354 4.36875e-14 0)
(6.35354 1.68796e-14 0)
(6.35354 2.14178e-14 0)
(6.35354 4.91752e-15 0)
(6.35354 -1.84365e-15 0)
(6.35354 6.53446e-16 0)
(6.35354 1.47092e-14 0)
(6.35354 4.61713e-14 0)
(6.35354 4.11504e-14 0)
(6.35354 2.93184e-14 0)
(6.35354 3.95468e-14 0)
(6.35354 3.862e-14 0)
(6.35354 4.13171e-14 0)
(6.35354 2.33074e-14 0)
(6.35354 3.17855e-14 0)
(6.35354 5.49428e-14 0)
(6.35354 6.86552e-14 0)
(6.35354 5.34926e-14 0)
(6.35354 5.13989e-14 0)
(6.35354 5.72699e-14 0)
(6.35354 8.45346e-14 0)
(6.35354 4.38876e-14 0)
(6.35354 -1.34323e-14 0)
(6.35354 -1.89599e-14 0)
(6.35354 -4.70081e-16 0)
(6.35354 2.39275e-14 0)
(6.35354 7.26125e-15 0)
(6.35354 -2.13037e-15 0)
(6.35354 -1.31669e-13 0)
(6.35354 -1.89553e-13 0)
(6.35354 -1.90346e-13 0)
(6.35354 -1.46452e-13 0)
(6.35354 -1.20854e-13 0)
(6.35354 -6.62181e-14 0)
(6.35354 -4.88351e-14 0)
(6.35354 1.82365e-14 0)
(6.35354 5.67631e-14 0)
(6.35354 -3.82299e-14 0)
(6.35354 -1.08795e-13 0)
(6.35354 -1.84442e-13 0)
(6.35354 -2.22398e-13 0)
(6.35354 -2.3347e-13 0)
(6.35354 -6.02262e-14 0)
(6.35354 -1.44658e-14 0)
(6.35354 -3.58395e-15 0)
(6.35354 2.98318e-14 0)
(6.35354 3.09053e-14 0)
(6.35354 5.93102e-15 0)
(6.35354 -2.26372e-14 0)
(6.35354 -3.68364e-14 0)
(6.35354 -2.92651e-14 0)
(6.35354 -2.15037e-14 0)
(6.35354 -4.58279e-14 0)
(6.35354 -1.01961e-13 0)
(6.35354 -1.01081e-13 0)
(6.35354 -2.43042e-15 0)
(6.35354 7.97238e-14 0)
(6.35354 9.24126e-14 0)
(6.35354 4.57712e-14 0)
(6.35354 6.94787e-15 0)
(6.35354 -1.18787e-14 0)
(6.35354 6.92253e-14 0)
(6.35354 1.21084e-13 0)
(6.35354 1.49646e-13 0)
(6.35354 1.26368e-13 0)
(6.35354 -9.26827e-15 0)
(6.35354 -5.4146e-14 0)
(6.35354 -6.38444e-14 0)
(6.35354 -1.02978e-13 0)
(6.35354 -7.90003e-14 0)
(6.35354 -2.5121e-14 0)
(6.35354 -2.26739e-14 0)
(6.35354 6.5898e-14 0)
(6.35354 1.43855e-13 0)
(6.35354 1.67886e-13 0)
(6.35354 1.528e-13 0)
(6.35354 1.15673e-13 0)
(6.35354 8.98755e-14 0)
(6.35354 7.82602e-14 0)
(6.35354 5.25924e-14 0)
(6.35354 -3.93735e-15 0)
(6.35354 -2.37108e-14 0)
(6.35354 1.08713e-15 0)
(6.35354 -6.31109e-15 0)
(6.35354 4.29074e-15 0)
(6.35354 1.31256e-14 0)
(6.35354 -8.72484e-15 0)
(6.35354 -3.96068e-14 0)
(6.35354 -1.79198e-14 0)
(6.35354 -1.3649e-14 0)
(6.35354 -5.34492e-14 0)
(6.35354 -1.10469e-13 0)
(6.35354 -1.24605e-13 0)
(6.35354 -1.08895e-13 0)
(6.35354 -1.14436e-13 0)
(6.35354 -1.1557e-13 0)
(6.35354 -1.16273e-13 0)
(6.35354 -9.17625e-14 0)
(6.35354 -5.47961e-14 0)
(6.35354 -2.82215e-14 0)
(6.35354 -1.85799e-14 0)
(6.35354 2.04802e-14 0)
(6.35354 4.28841e-14 0)
(6.35354 5.45694e-14 0)
(6.35354 6.23241e-14 0)
(6.35354 -1.1372e-14 0)
(6.35354 -5.82101e-14 0)
(6.35354 -5.87101e-14 0)
(6.35354 2.73014e-14 0)
(6.35354 1.63805e-13 0)
(6.35354 1.95554e-13 0)
(6.35354 2.11036e-13 0)
(6.35354 1.79208e-13 0)
(6.35354 1.64545e-13 0)
(6.35354 1.68176e-13 0)
(6.35354 1.84078e-13 0)
(6.35354 1.59514e-13 0)
(6.35354 9.65467e-14 0)
(6.35354 6.08072e-14 0)
(6.35354 5.60697e-14 0)
(6.35354 1.02871e-13 0)
(6.35354 1.52423e-13 0)
(6.35354 1.46983e-13 0)
(6.35354 1.69163e-14 0)
(6.35354 2.83516e-14 0)
(6.35354 2.01968e-14 0)
(6.35354 -4.60079e-16 0)
(6.35354 9.42829e-15 0)
(6.35354 6.33376e-14 0)
(6.35354 1.09719e-13 0)
(6.35354 9.75402e-14 0)
(6.35354 6.09405e-14 0)
(6.35354 3.42693e-14 0)
(6.35354 4.0737e-14 0)
(6.35354 5.07754e-15 0)
(6.35354 -1.11033e-13 0)
(6.35354 -1.39247e-13 0)
(6.35354 -1.3683e-13 0)
(6.35354 -7.26459e-14 0)
(6.35354 -3.49794e-14 0)
(6.35354 -2.00468e-14 0)
(6.35354 -2.2934e-14 0)
(6.35354 -4.87051e-14 0)
(6.35354 -5.50562e-14 0)
(6.35354 -6.19107e-14 0)
(6.35354 -3.05719e-15 0)
(6.35354 7.55831e-14 0)
(6.35354 7.67799e-14 0)
(6.35354 1.17557e-13 0)
(6.35354 1.87592e-13 0)
(6.35354 1.9317e-13 0)
(6.35354 1.02814e-13 0)
(6.35354 6.90186e-14 0)
(6.35354 6.55847e-14 0)
(6.35354 1.21058e-13 0)
(6.35354 1.32303e-13 0)
(6.35354 3.83766e-14 0)
(6.35354 2.0947e-14 0)
(6.35354 -1.71363e-15 0)
(6.35354 5.71432e-15 0)
(6.35354 7.25292e-14 0)
(6.35354 1.50359e-13 0)
(6.35354 1.86053e-13 0)
(6.35354 7.29126e-15 0)
(6.35354 3.16388e-15 0)
(6.35354 -1.53193e-14 0)
(6.35354 -2.40008e-14 0)
(6.35354 -2.13704e-14 0)
(6.35354 -4.66514e-14 0)
(6.35354 1.1432e-14 0)
(6.35354 3.74998e-14 0)
(6.35354 4.83717e-14 0)
(6.35354 5.2089e-14 0)
(6.35354 -1.952e-14 0)
(6.35354 -5.00486e-14 0)
(6.35354 -6.23508e-14 0)
(6.35354 -3.6923e-14 0)
(6.35354 7.29793e-15 0)
(6.35354 1.68896e-14 0)
(6.35354 1.11419e-14 0)
(6.35354 3.84733e-15 0)
(6.35354 -1.97701e-15 0)
(6.35354 -3.81066e-15 0)
(6.35354 1.00884e-14 0)
(6.35354 1.11053e-14 0)
(6.35354 -1.29256e-14 0)
(6.35354 1.58261e-14 0)
(6.35354 5.46794e-14 0)
(6.35354 7.00488e-14 0)
(6.35354 1.21034e-13 0)
(6.35354 1.80041e-13 0)
(6.35354 1.53e-13 0)
(6.35354 1.21528e-13 0)
(6.35354 9.31861e-14 0)
(6.35354 4.48077e-14 0)
(6.35354 -6.72449e-14 0)
(6.35354 -8.32044e-14 0)
(6.35354 4.43077e-15 0)
(6.35354 2.98151e-14 0)
(6.35354 4.6148e-14 0)
(6.35354 6.87752e-14 0)
(6.35354 7.5193e-14 0)
(6.35354 6.10849e-14 0)
(6.35354 -7.25459e-15 0)
(6.35354 -4.04737e-15 0)
(6.35354 -2.55377e-15 0)
(6.35354 3.70731e-15 0)
(6.35354 -1.7373e-14 0)
(6.35354 -5.5973e-14 0)
(6.35354 -7.77734e-14 0)
(6.35354 -5.48395e-14 0)
(6.35354 -3.2579e-14 0)
(6.35354 -4.09971e-14 0)
(6.35354 -4.77216e-14 0)
(6.35354 -3.63596e-14 0)
(6.35354 2.84382e-15 0)
(6.35354 1.68262e-14 0)
(6.35354 3.37825e-14 0)
(6.35354 7.01755e-14 0)
(6.35354 1.08505e-13 0)
(6.35354 1.14436e-13 0)
(6.35354 8.84119e-14 0)
(6.35354 4.84784e-14 0)
(6.35354 4.81717e-14 0)
(6.35354 7.32193e-14 0)
(6.35354 1.29472e-13 0)
(6.35354 1.52426e-13 0)
(6.35354 1.39837e-13 0)
(6.35354 8.82086e-14 0)
(6.35354 6.82485e-14 0)
(6.35354 7.13323e-14 0)
(6.35354 8.6785e-14 0)
(6.35354 7.44529e-14 0)
(6.35354 5.9857e-14 0)
(6.35354 -5.34426e-14 0)
(6.35354 -1.67962e-13 0)
(6.35354 -1.87812e-13 0)
(6.35354 -2.12373e-13 0)
(6.35354 -6.88386e-14 0)
(6.35354 -2.90317e-14 0)
(6.35354 1.65795e-14 0)
(6.35354 -4.52945e-14 0)
(6.35354 -1.30019e-13 0)
(6.35354 3.26723e-15 0)
(6.35354 1.48992e-14 0)
(6.35354 1.63628e-14 0)
(6.35354 2.43242e-14 0)
(6.35354 4.08437e-14 0)
(6.35354 3.97669e-14 0)
(6.35354 7.22291e-14 0)
(6.35354 1.01314e-13 0)
(6.35354 1.36067e-13 0)
(6.35354 1.29476e-13 0)
(6.35354 1.14706e-13 0)
(6.35354 1.08629e-13 0)
(6.35354 1.23638e-13 0)
(6.35354 1.24672e-13 0)
(6.35354 8.79319e-14 0)
(6.35354 8.82619e-14 0)
(6.35354 1.1362e-13 0)
(6.35354 9.91138e-14 0)
(6.35354 3.39292e-14 0)
(6.35354 -4.85017e-14 0)
(6.35354 -4.40543e-14 0)
(6.35354 -1.3479e-14 0)
(6.35354 5.35359e-14 0)
(6.35354 6.12406e-14 0)
(6.35354 6.80017e-14 0)
(6.35354 7.3386e-14 0)
(6.35354 2.04335e-14 0)
(6.35354 -1.26822e-14 0)
(6.35354 -1.41491e-14 0)
(6.35354 -6.3951e-14 0)
(6.35354 -6.65615e-14 0)
(6.35354 -6.53913e-14 0)
(6.35354 -3.06453e-14 0)
(6.35354 -3.05686e-14 0)
(6.35354 -7.87169e-14 0)
(6.35354 -1.65465e-13 0)
(6.35354 -1.91563e-13 0)
(6.35354 -1.79161e-13 0)
(6.35354 -2.28806e-13 0)
(6.35354 -2.65501e-13 0)
(6.35354 9.82503e-15 0)
(6.35354 -8.00138e-15 0)
(6.35354 -9.50831e-15 0)
(6.35354 2.6838e-15 0)
(6.35354 1.51893e-14 0)
(6.35354 6.66115e-14 0)
(6.35354 8.37711e-14 0)
(6.35354 8.54914e-14 0)
(6.35354 8.93821e-14 0)
(6.35354 9.99273e-14 0)
(6.35354 1.23531e-13 0)
(6.35354 1.26118e-13 0)
(6.35354 1.39651e-13 0)
(6.35354 1.5689e-13 0)
(6.35354 1.27762e-13 0)
(6.35354 1.60761e-14 0)
(6.35354 -5.01553e-14 0)
(6.35354 -6.46112e-14 0)
(6.35354 -6.62348e-14 0)
(6.35354 -6.42011e-14 0)
(6.35354 -7.68566e-14 0)
(6.35354 -6.63915e-14 0)
(6.35354 -4.87484e-14 0)
(6.35354 -4.38742e-14 0)
(6.35354 -2.36107e-14 0)
(6.35354 4.67081e-15 0)
(6.35354 1.65429e-14 0)
(6.35354 9.28494e-15 0)
(6.35354 -5.24757e-14 0)
(6.35354 -7.29926e-14 0)
(6.35354 -5.34526e-14 0)
(6.35354 -3.2799e-14 0)
(6.35354 -3.23956e-14 0)
(6.35354 1.82932e-14 0)
(6.35354 2.93551e-14 0)
(6.35354 1.50693e-15 0)
(6.35354 -4.12738e-14 0)
(6.35354 -1.00927e-13 0)
(6.35354 -1.28686e-13 0)
(6.35354 -1.21542e-13 0)
(6.35354 2.27039e-15 0)
(6.35354 6.55113e-15 0)
(6.35354 2.37341e-14 0)
(6.35354 3.09453e-14 0)
(6.35354 2.22738e-14 0)
(6.35354 3.18988e-14 0)
(6.35354 3.03619e-14 0)
(6.35354 3.12721e-14 0)
(6.35354 2.08103e-14 0)
(6.35354 1.67796e-14 0)
(6.35354 2.01668e-14 0)
(6.35354 4.90251e-14 0)
(6.35354 5.17989e-14 0)
(6.35354 8.93488e-16 0)
(6.35354 -6.83518e-14 0)
(6.35354 -1.28109e-13 0)
(6.35354 -2.08933e-13 0)
(6.35354 -2.1469e-13 0)
(6.35354 -2.06582e-13 0)
(6.35354 -1.96741e-13 0)
(6.35354 -1.76897e-13 0)
(6.35354 -8.88487e-14 0)
(6.35354 -6.78117e-14 0)
(6.35354 -7.79868e-14 0)
(6.35354 -1.23895e-13 0)
(6.35354 -1.5254e-13 0)
(6.35354 -1.45275e-13 0)
(6.35354 -9.60032e-14 0)
(6.35354 -2.1047e-14 0)
(6.35354 4.4121e-14 0)
(6.35354 8.92387e-14 0)
(6.35354 1.28746e-13 0)
(6.35354 1.1344e-13 0)
(6.35354 3.17588e-14 0)
(6.35354 1.04871e-13 0)
(6.35354 2.15004e-13 0)
(6.35354 2.41332e-13 0)
(6.35354 8.28843e-14 0)
(6.35354 4.4341e-15 0)
(6.35354 -2.25769e-14 0)
(6.35354 -1.70696e-15 0)
(6.35354 1.66695e-17 0)
(6.35354 -1.57527e-14 0)
(6.35354 -3.2789e-14 0)
(6.35354 -3.41459e-14 0)
(6.35354 -4.29341e-14 0)
(6.35354 -4.88318e-14 0)
(6.35354 -2.91017e-14 0)
(6.35354 -2.25439e-14 0)
(6.35354 -5.40427e-14 0)
(6.35354 -9.17892e-14 0)
(6.35354 -1.1504e-13 0)
(6.35354 -1.1611e-13 0)
(6.35354 -1.16657e-13 0)
(6.35354 -9.29494e-14 0)
(6.35354 -7.1339e-14 0)
(6.35354 -1.39821e-13 0)
(6.35354 -1.67856e-13 0)
(6.35354 -1.94487e-13 0)
(6.35354 -2.03909e-13 0)
(6.35354 -1.52476e-13 0)
(6.35354 -9.54898e-14 0)
(6.35354 -8.49747e-14 0)
(6.35354 -8.54581e-14 0)
(6.35354 -1.61548e-13 0)
(6.35354 -2.12863e-13 0)
(6.35354 -2.3226e-13 0)
(6.35354 -2.76194e-13 0)
(6.35354 -2.17934e-13 0)
(6.35354 -1.56527e-14 0)
(6.35354 7.67799e-15 0)
(6.35354 -1.98801e-14 0)
(6.35354 -1.50359e-15 0)
(6.35354 5.26691e-14 0)
(6.35354 5.06187e-14 0)
(6.35354 5.15389e-14 0)
(6.35354 9.2796e-14 0)
(6.35354 7.11623e-14 0)
(6.35354 9.93172e-14 0)
(6.35354 -4.73592e-14 0)
(6.35354 -9.79836e-15 0)
(6.35354 -4.0467e-14 0)
(6.35354 -4.05737e-14 0)
(6.35354 -5.09255e-14 0)
(6.35354 -4.73715e-14 0)
(6.35354 -7.30526e-14 0)
(6.35354 -8.63316e-14 0)
(6.35354 -1.1484e-13 0)
(6.35354 -9.633e-14 0)
(6.35354 -5.51229e-14 0)
(6.35354 -6.59814e-14 0)
(6.35354 -1.07005e-13 0)
(6.35354 -1.29192e-13 0)
(6.35354 -1.1806e-13 0)
(6.35354 -7.47096e-14 0)
(6.35354 -4.78349e-14 0)
(6.35354 -1.75297e-14 0)
(6.35354 1.47692e-15 0)
(6.35354 -7.80468e-15 0)
(6.35354 -2.42042e-14 0)
(6.35354 -1.03798e-13 0)
(6.35354 -2.19378e-13 0)
(6.35354 -2.62415e-13 0)
(6.35354 -2.49256e-13 0)
(6.35354 -1.62158e-13 0)
(6.35354 -1.28472e-13 0)
(6.35354 -1.63842e-13 0)
(6.35354 -2.14424e-13 0)
(6.35354 -2.23052e-13 0)
(6.35354 -1.97891e-13 0)
(6.35354 -1.58697e-13 0)
(6.35354 -1.87322e-13 0)
(6.35354 -1.59584e-13 0)
(6.35354 -1.01348e-13 0)
(6.35354 -3.19789e-14 0)
(6.35354 3.24423e-14 0)
(6.35354 1.06218e-14 0)
(6.35354 -2.25706e-15 0)
(6.35354 2.8715e-14 0)
(6.35354 1.03158e-14 0)
(6.35354 6.12439e-15 0)
(6.35354 1.28789e-14 0)
(6.35354 8.03805e-15 0)
(6.35354 2.10536e-14 0)
(6.35354 2.09503e-14 0)
(6.35354 8.80485e-15 0)
(6.35354 1.89366e-15 0)
(6.35354 -3.70631e-14 0)
(6.35354 -4.52211e-14 0)
(6.35354 5.86768e-16 0)
(6.35354 3.58129e-14 0)
(6.35354 3.20255e-14 0)
(6.35354 -2.01335e-14 0)
(6.35354 -2.59045e-14 0)
(6.35354 -8.38478e-15 0)
(6.35354 3.75465e-14 0)
(6.35354 6.64815e-14 0)
(6.35354 5.02653e-14 0)
(6.35354 2.75948e-14 0)
(6.35354 -4.22973e-14 0)
(6.35354 -7.07389e-14 0)
(6.35354 -8.57548e-14 0)
(6.35354 -1.75304e-13 0)
(6.35354 -2.10493e-13 0)
(6.35354 -1.65262e-13 0)
(6.35354 -6.67449e-14 0)
(6.35354 -3.51794e-14 0)
(6.35354 -4.13071e-15 0)
(6.35354 1.5436e-15 0)
(6.35354 -3.6453e-14 0)
(6.35354 -9.06823e-15 0)
(6.35354 -2.49743e-14 0)
(6.35354 -1.00217e-13 0)
(6.35354 -1.43715e-13 0)
(6.35354 -1.1585e-13 0)
(6.35354 -1.06168e-13 0)
(6.35354 -1.1302e-13 0)
(6.35354 -9.49364e-14 0)
(6.35354 -1.42215e-13 0)
(6.35354 -2.11797e-13 0)
(6.35354 1.94367e-15 0)
(6.35354 2.5351e-14 0)
(6.35354 1.50793e-14 0)
(6.35354 1.79231e-14 0)
(6.35354 2.36541e-14 0)
(6.35354 4.33508e-14 0)
(6.35354 4.64747e-14 0)
(6.35354 2.50143e-14 0)
(6.35354 -1.3359e-14 0)
(6.35354 -4.23573e-14 0)
(6.35354 -1.61561e-14 0)
(6.35354 -1.60694e-14 0)
(6.35354 3.53861e-14 0)
(6.35354 5.42594e-14 0)
(6.35354 6.25608e-14 0)
(6.35354 3.62929e-14 0)
(6.35354 1.49626e-14 0)
(6.35354 -2.58711e-15 0)
(6.35354 -5.88002e-14 0)
(6.35354 -7.47829e-14 0)
(6.35354 -3.27457e-14 0)
(6.35354 -1.36057e-14 0)
(6.35354 -2.32674e-14 0)
(6.35354 -8.14074e-14 0)
(6.35354 -1.21458e-13 0)
(6.35354 -7.733e-14 0)
(6.35354 -4.91085e-15 0)
(6.35354 -2.28706e-15 0)
(6.35354 9.34161e-15 0)
(6.35354 5.51762e-15 0)
(6.35354 -7.03188e-14 0)
(6.35354 -1.15027e-13 0)
(6.35354 -1.9064e-13 0)
(6.35354 -2.1482e-13 0)