/*--------------------------------*- C++ -*----------------------------------*\
| =========                 |                                                 |
| \\      /  F ield         | OpenFOAM: The Open Source CFD Toolbox           |
|  \\    /   O peration     | Version:  2206                                  |
|   \\  /    A nd           | Website:  www.openfoam.com                      |
|    \\/     M anipulation  |                                                 |
\*---------------------------------------------------------------------------*/
FoamFile
{
    version     2.0;
    format      ascii;
    arch        "LSB;label=32;scalar=64";
    class       volVectorField;
    location    "0.08";
    object      U;
}
// * * * * * * * * * * * * * * * * * * * * * * * * * * * * * * * * * * * * * //

dimensions      [0 1 -1 0 0 0 0];

internalField   nonuniform List<vector> 
4800
(
(4.45455 -6.25441e-15 0)
(4.45455 3.64396e-15 0)
(4.45455 1.45759e-14 0)
(4.45455 -4.0307e-15 0)
(4.45455 -4.43743e-15 0)
(4.45455 5.95936e-14 0)
(4.45455 1.373e-13 0)
(4.45455 1.45162e-13 0)
(4.45455 1.04415e-13 0)
(4.45455 1.24185e-13 0)
(4.45455 1.14803e-13 0)
(4.45455 8.83819e-14 0)
(4.45455 1.01451e-13 0)
(4.45455 9.8657e-14 0)
(4.45455 8.64083e-14 0)
(4.45455 4.74249e-14 0)
(4.45455 -1.69063e-14 0)
(4.45455 -1.86732e-14 0)
(4.45455 1.67162e-14 0)
(4.45455 3.2829e-14 0)
(4.45455 1.3369e-14 0)
(4.45455 7.1379e-15 0)
(4.45455 1.26622e-14 0)
(4.45455 -1.06218e-14 0)
(4.45455 -1.64162e-14 0)
(4.45455 -5.88568e-14 0)
(4.45455 -7.5133e-14 0)
(4.45455 -7.76401e-14 0)
(4.45455 -7.98338e-14 0)
(4.45455 -9.28994e-14 0)
(4.45455 -9.70834e-14 0)
(4.45455 -6.9312e-14 0)
(4.45455 -4.16639e-14 0)
(4.45455 3.80832e-14 0)
(4.45455 1.29299e-13 0)
(4.45455 1.43008e-13 0)
(4.45455 1.14123e-13 0)
(4.45455 -1.84465e-14 0)
(4.45455 -4.81483e-14 0)
(4.45455 -4.55412e-15 0)
(4.45455 -2.52677e-14 0)
(4.45455 -2.70513e-14 0)
(4.45455 -2.1157e-14 0)
(4.45455 -2.55978e-14 0)
(4.45455 1.18587e-14 0)
(4.45455 7.23725e-14 0)
(4.45455 6.77684e-14 0)
(4.45455 1.24788e-13 0)
(4.45455 1.04915e-13 0)
(4.45455 6.89052e-14 0)
(4.45455 5.76066e-14 0)
(4.45455 -1.36857e-14 0)
(4.45455 1.953e-14 0)
(4.45455 3.52494e-14 0)
(4.45455 3.90501e-14 0)
(4.45455 2.62512e-14 0)
(4.45455 4.50745e-15 0)
(4.45455 -2.13103e-14 0)
(4.45455 -1.87732e-14 0)
(4.45455 -2.93617e-14 0)
(4.45455 -2.11903e-14 0)
(4.45455 4.05203e-14 0)
(4.45455 3.66597e-14 0)
(4.45455 -4.40943e-14 0)
(4.45455 -6.62848e-14 0)
(4.45455 -1.69226e-13 0)
(4.45455 -1.89089e-13 0)
(4.45455 -1.64105e-13 0)
(4.45455 -1.46762e-13 0)
(4.45455 -1.94647e-13 0)
(4.45455 -2.00455e-13 0)
(4.45455 -1.92737e-13 0)
(4.45455 -1.46439e-13 0)
(4.45455 -3.59462e-14 0)
(4.45455 -2.84282e-14 0)
(4.45455 -4.49578e-14 0)
(4.45455 -4.12605e-14 0)
(4.45455 -6.87152e-14 0)
(4.45455 -9.58232e-14 0)
(4.45455 3.22481e-14 0)
(4.45455 -4.50078e-16 0)
(4.45455 -3.67397e-15 0)
(4.45455 -2.06369e-14 0)
(4.45455 -3.73898e-14 0)
(4.45455 -5.74032e-14 0)
(4.45455 -2.44276e-14 0)
(4.45455 -1.26322e-14 0)
(4.45455 -2.08703e-15 0)
(4.45455 3.20155e-14 0)
(4.45455 1.05718e-14 0)
(4.45455 2.63445e-14 0)
(4.45455 6.04904e-14 0)
(4.45455 2.73214e-14 0)
(4.45455 2.1397e-14 0)
(4.45455 9.01356e-14 0)
(4.45455 7.78068e-14 0)
(4.45455 6.78784e-14 0)
(4.45455 1.20121e-14 0)
(4.45455 -5.53429e-16 0)
(4.45455 5.50428e-15 0)
(4.45455 3.32824e-14 0)
(4.45455 4.52178e-14 0)
(4.45455 -1.05185e-14 0)
(4.45455 4.06737e-16 0)
(4.45455 4.16072e-14 0)
(4.45455 -2.69713e-14 0)
(4.45455 -1.77271e-13 0)
(4.45455 -1.42861e-13 0)
(4.45455 -9.42896e-14 0)
(4.45455 -7.86636e-14 0)
(4.45455 -4.4461e-14 0)
(4.45455 -4.0317e-14 0)
(4.45455 -1.09752e-14 0)
(4.45455 -5.56429e-15 0)
(4.45455 1.18254e-14 0)
(4.45455 3.61729e-14 0)
(4.45455 4.77516e-14 0)
(4.45455 5.33359e-14 0)
(4.45455 3.02686e-14 0)
(4.45455 6.16442e-14 0)
(4.45455 -5.09088e-15 0)
(4.45455 1.86732e-14 0)
(4.45455 1.66829e-14 0)
(4.45455 5.26758e-15 0)
(4.45455 -2.97885e-14 0)
(4.45455 -2.73847e-14 0)
(4.45455 7.43862e-14 0)
(4.45455 6.10605e-14 0)
(4.45455 2.43909e-14 0)
(4.45455 4.82683e-14 0)
(4.45455 7.43728e-14 0)
(4.45455 8.20442e-14 0)
(4.45455 4.66681e-14 0)
(4.45455 4.39576e-14 0)
(4.45455 6.98254e-14 0)
(4.45455 7.92704e-14 0)
(4.45455 9.21492e-14 0)
(4.45455 1.50516e-13 0)
(4.45455 1.08112e-13 0)
(4.45455 8.2751e-14 0)
(4.45455 5.76833e-14 0)
(4.45455 3.57728e-14 0)
(4.45455 -5.07288e-14 0)
(4.45455 -1.13283e-13 0)
(4.45455 -8.77418e-14 0)
(4.45455 -7.49296e-14 0)
(4.45455 -1.3679e-13 0)
(4.45455 -1.42791e-13 0)
(4.45455 -1.07689e-13 0)
(4.45455 -5.54963e-14 0)
(4.45455 1.06585e-14 0)
(4.45455 3.79699e-14 0)
(4.45455 7.29493e-14 0)
(4.45455 6.68282e-14 0)
(4.45455 8.2791e-14 0)
(4.45455 1.14416e-13 0)
(4.45455 1.39617e-13 0)
(4.45455 1.25362e-13 0)
(4.45455 7.73134e-14 0)
(4.45455 2.6726e-14 0)
(4.45455 -2.48043e-15 0)
(4.45455 1.49392e-14 0)
(4.45455 4.42176e-14 0)
(4.45455 5.91035e-14 0)
(4.45455 6.30709e-14 0)
(4.45455 6.24975e-14 0)
(4.45455 8.00705e-14 0)
(4.45455 9.33628e-14 0)
(4.45455 5.11122e-14 0)
(4.45455 5.34859e-14 0)
(4.45455 4.26974e-14 0)
(4.45455 5.53096e-15 0)
(4.45455 6.46345e-14 0)
(4.45455 1.20461e-13 0)
(4.45455 4.30974e-14 0)
(4.45455 3.55095e-14 0)
(4.45455 9.4383e-14 0)
(4.45455 1.23318e-13 0)
(4.45455 1.23705e-13 0)
(4.45455 8.71384e-14 0)
(4.45455 2.81749e-14 0)
(4.45455 1.25322e-14 0)
(4.45455 1.08785e-14 0)
(4.45455 -4.92752e-14 0)
(4.45455 -1.46519e-13 0)
(4.45455 -1.07462e-13 0)
(4.45455 -6.7475e-14 0)
(4.45455 -5.21057e-14 0)
(4.45455 -4.25373e-14 0)
(4.45455 -6.36777e-16 0)
(4.45455 5.02153e-14 0)
(4.45455 8.79085e-14 0)
(4.45455 7.96871e-14 0)
(4.45455 3.81733e-14 0)
(4.45455 -1.33423e-14 0)
(4.45455 -2.02135e-14 0)
(4.45455 1.12686e-14 0)
(4.45455 -6.12439e-15 0)
(4.45455 -2.18404e-14 0)
(4.45455 -9.36324e-14 0)
(4.45455 -9.29827e-15 0)
(4.45455 -2.66179e-14 0)
(4.45455 2.76281e-14 0)
(4.45455 4.31608e-14 0)
(4.45455 8.07373e-14 0)
(4.45455 6.80851e-14 0)
(4.45455 -5.44094e-15 0)
(4.45455 8.60149e-15 0)
(4.45455 1.7623e-14 0)
(4.45455 -9.35161e-15 0)
(4.45455 -2.95318e-14 0)
(4.45455 3.90934e-14 0)
(4.45455 8.95988e-14 0)
(4.45455 6.89752e-14 0)
(4.45455 7.06722e-14 0)
(4.45455 4.01903e-14 0)
(4.45455 2.02368e-15 0)
(4.45455 -2.59045e-14 0)
(4.45455 2.24039e-15 0)
(4.45455 2.36674e-14 0)
(4.45455 -4.28807e-14 0)
(4.45455 -7.64699e-14 0)
(4.45455 -2.02435e-14 0)
(4.45455 9.70668e-14 0)
(4.45455 1.25542e-13 0)
(4.45455 4.89284e-14 0)
(4.45455 1.28789e-14 0)
(4.45455 4.66281e-14 0)
(4.45455 5.24491e-14 0)
(4.45455 4.13305e-14 0)
(4.45455 9.60066e-14 0)
(4.45455 1.3525e-13 0)
(4.45455 1.14666e-13 0)
(4.45455 2.68546e-14 0)
(4.45455 4.34708e-14 0)
(4.45455 4.76449e-14 0)
(4.45455 -3.98335e-14 0)
(4.45455 -1.20101e-13 0)
(4.45455 -9.85237e-14 0)
(4.45455 -8.15279e-14 0)
(4.45455 -2.89383e-15 0)
(4.45455 -4.83417e-14 0)
(4.45455 -8.6985e-14 0)
(4.45455 -6.58314e-14 0)
(4.45455 -8.25476e-15 0)
(4.45455 -1.21288e-14 0)
(4.45455 -4.73648e-14 0)
(4.45455 -6.85618e-14 0)
(4.45455 -3.94868e-14 0)
(4.45455 -7.03555e-14 0)
(4.45455 -8.60315e-14 0)
(4.45455 -1.75664e-14 0)
(4.45455 -4.33475e-14 0)
(4.45455 -4.4151e-14 0)
(4.45455 -3.50727e-14 0)
(4.45455 -2.46143e-14 0)
(4.45455 1.97034e-15 0)
(4.45455 -1.1422e-14 0)
(4.45455 -1.05018e-14 0)
(4.45455 -3.4486e-14 0)
(4.45455 -3.22822e-14 0)
(4.45455 -5.24657e-14 0)
(4.45455 -5.44327e-14 0)
(4.45455 -8.12807e-15 0)
(4.45455 -1.17687e-14 0)
(4.45455 -7.18357e-14 0)
(4.45455 -8.58315e-14 0)
(4.45455 -6.68582e-14 0)
(4.45455 -6.26475e-14 0)
(4.45455 -6.03604e-14 0)
(4.45455 1.48792e-14 0)
(4.45455 4.82483e-14 0)
(4.45455 4.6378e-14 0)
(4.45455 5.68965e-14 0)
(4.45455 5.0322e-14 0)
(4.45455 2.5281e-14 0)
(4.45455 -9.27494e-15 0)
(4.45455 -7.21458e-15 0)
(4.45455 -7.63799e-15 0)
(4.45455 -9.52976e-15 0)
(4.45455 5.76433e-15 0)
(4.45455 1.41691e-15 0)
(4.45455 -3.25189e-14 0)
(4.45455 -2.33874e-14 0)
(4.45455 -2.74714e-14 0)
(4.45455 -4.6358e-14 0)
(4.45455 -7.85836e-14 0)
(4.45455 -9.657e-14 0)
(4.45455 -1.18647e-13 0)
(4.45455 -8.61449e-14 0)
(4.45455 -4.77116e-14 0)
(4.45455 5.52229e-14 0)
(4.45455 7.5463e-14 0)
(4.45455 7.30593e-14 0)
(4.45455 4.4441e-15 0)
(4.45455 4.71248e-14 0)
(4.45455 4.10904e-14 0)
(4.45455 6.84452e-15 0)
(4.45455 -4.4401e-14 0)
(4.45455 -8.5028e-14 0)
(4.45455 -6.60481e-14 0)
(4.45455 -5.14756e-14 0)
(4.45455 -8.1014e-15 0)
(4.45455 3.35491e-14 0)
(4.45455 1.30889e-14 0)
(4.45455 6.94787e-15 0)
(4.45455 2.41075e-14 0)
(4.45455 4.75749e-15 0)
(4.45455 -1.81998e-14 0)
(4.45455 -4.77016e-14 0)
(4.45455 -6.04804e-14 0)
(4.45455 -3.06953e-14 0)
(4.45455 -2.66913e-14 0)
(4.45455 3.16888e-14 0)
(4.45455 1.86499e-14 0)
(4.45455 5.33425e-15 0)
(4.45455 3.62429e-14 0)
(4.45455 6.80117e-14 0)
(4.45455 2.50443e-14 0)
(4.45455 6.9072e-15 0)
(4.45455 -1.64728e-14 0)
(4.45455 2.81049e-15 0)
(4.45455 5.54529e-14 0)
(4.45455 3.77732e-14 0)
(4.45455 8.93154e-15 0)
(4.45455 -3.27757e-14 0)
(4.45455 -2.57111e-14 0)
(4.45455 -8.57481e-15 0)
(4.45455 -4.48577e-14 0)
(4.45455 -4.20773e-14 0)
(4.45455 6.7535e-14 0)
(4.45455 1.68359e-13 0)
(4.45455 2.04149e-13 0)
(4.45455 1.43298e-13 0)
(4.45455 1.23675e-13 0)
(4.45455 9.24626e-14 0)
(4.45455 4.53145e-14 0)
(4.45455 -1.66662e-14 0)
(4.45455 -5.93369e-14 0)
(4.45455 -6.23508e-14 0)
(4.45455 -6.83385e-14 0)
(4.45455 -3.15655e-14 0)
(4.45455 -1.10019e-15 0)
(4.45455 -1.53993e-14 0)
(4.45455 -5.25091e-15 0)
(4.45455 1.17154e-14 0)
(4.45455 2.39075e-14 0)
(4.45455 1.03518e-14 0)
(4.45455 3.31957e-14 0)
(4.45455 -1.81031e-15 0)
(4.45455 -6.44445e-15 0)
(4.45455 -2.98918e-14 0)
(4.45455 -2.22072e-14 0)
(4.45455 -5.54262e-14 0)
(4.45455 -1.04528e-13 0)
(4.45455 -1.07295e-13 0)
(4.45455 -6.25641e-14 0)
(4.45455 4.23973e-14 0)
(4.45455 3.63629e-14 0)
(4.45455 4.34647e-14 0)
(4.45455 -1.28689e-15 0)
(4.45455 -7.95804e-15 0)
(4.45455 -1.01017e-14 0)
(4.45455 -6.21107e-15 0)
(4.45455 6.9542e-14 0)
(4.45455 8.44546e-14 0)
(4.45455 9.21692e-14 0)
(4.45455 5.9567e-14 0)
(4.45455 3.35391e-14 0)
(4.45455 4.10504e-14 0)
(4.45455 6.5548e-14 0)
(4.45455 9.10524e-14 0)
(4.45455 6.85385e-14 0)
(4.45455 6.90153e-14 0)
(4.45455 1.11333e-13 0)
(4.45455 8.23142e-15 0)
(4.45455 7.52797e-15 0)
(4.45455 2.68313e-14 0)
(4.45455 1.07652e-14 0)
(4.45455 7.87469e-15 0)
(4.45455 2.46543e-14 0)
(4.45455 6.60114e-16 0)
(4.45455 -3.883e-14 0)
(4.45455 -2.25006e-14 0)
(4.45455 -1.03485e-14 0)
(4.45455 3.14821e-14 0)
(4.45455 3.45893e-14 0)
(4.45455 2.05636e-14 0)
(4.45455 -6.57647e-14 0)
(4.45455 -4.90985e-14 0)
(4.45455 -3.93801e-14 0)
(4.45455 -4.19806e-14 0)
(4.45455 -7.09589e-14 0)
(4.45455 -1.25112e-13 0)
(4.45455 -1.84532e-13 0)
(4.45455 -1.96297e-13 0)
(4.45455 -1.02551e-13 0)
(4.45455 -3.1072e-14 0)
(4.45455 -2.03702e-15 0)
(4.45455 2.17166e-14 0)
(4.45455 4.70748e-15 0)
(4.45455 -9.67167e-15 0)
(4.45455 1.00017e-14 0)
(4.45455 5.62264e-14 0)
(4.45455 5.99137e-14 0)
(4.45455 6.09572e-14 0)
(4.45455 2.66713e-14 0)
(4.45455 -4.88551e-14 0)
(4.45455 2.23739e-14 0)
(4.45455 4.2514e-14 0)
(4.45455 7.19791e-15 0)
(4.45455 -4.79183e-14 0)
(4.45455 2.62412e-14 0)
(4.45455 8.71184e-14 0)
(4.45455 1.25778e-13 0)
(4.45455 4.22206e-14 0)
(4.45455 -2.89283e-14 0)
(4.45455 -6.43444e-15 0)
(4.45455 2.85616e-14 0)
(4.45455 5.72399e-14 0)
(4.45455 4.8265e-14 0)
(4.45455 1.05195e-13 0)
(4.45455 1.07222e-13 0)
(4.45455 1.02298e-13 0)
(4.45455 1.52466e-13 0)
(4.45455 2.20658e-13 0)
(4.45455 1.95154e-13 0)
(4.45455 1.39807e-13 0)
(4.45455 -1.00684e-14 0)
(4.45455 -9.22493e-15 0)
(4.45455 -1.06248e-13 0)
(4.45455 -1.13856e-13 0)
(4.45455 -1.19167e-13 0)
(4.45455 -1.29142e-13 0)
(4.45455 -8.90254e-14 0)
(4.45455 -1.26238e-13 0)
(4.45455 -1.23285e-13 0)
(4.45455 -4.63713e-14 0)
(4.45455 -1.95034e-14 0)
(4.45455 -7.04631e-15 0)
(4.45455 1.99134e-14 0)
(4.45455 9.10457e-14 0)
(4.45455 9.8697e-14 0)
(4.45455 2.43209e-14 0)
(4.45455 -1.08845e-13 0)
(4.45455 -1.21938e-13 0)
(4.45455 -1.31319e-13 0)
(4.45455 -8.64283e-14 0)
(4.45455 -4.36742e-15 0)
(4.45455 2.2934e-14 0)
(4.45455 -9.16492e-15 0)
(4.45455 -3.43659e-14 0)
(4.45455 3.99969e-14 0)
(4.45455 6.3831e-14 0)
(4.45455 8.30377e-14 0)
(4.45455 3.65696e-14 0)
(4.45455 3.36958e-14 0)
(4.45455 7.29359e-14 0)
(4.45455 1.00007e-13 0)
(4.45455 1.68342e-13 0)
(4.45455 1.53583e-13 0)
(4.45455 1.14213e-13 0)
(4.45455 7.77701e-14 0)
(4.45455 5.36459e-14 0)
(4.45455 1.5515e-13 0)
(4.45455 1.43368e-13 0)
(4.45455 1.3601e-13 0)
(4.45455 1.50499e-13 0)
(4.45455 1.14033e-13 0)
(4.45455 7.96771e-14 0)
(4.45455 4.03736e-14 0)
(4.45455 -5.48995e-14 0)
(4.45455 -1.3478e-13 0)
(4.45455 -1.44678e-13 0)
(4.45455 -1.40738e-13 0)
(4.45455 -1.51076e-13 0)
(4.45455 -1.22738e-13 0)
(4.45455 -2.59145e-14 0)
(4.45455 -1.22688e-15 0)
(4.45455 -2.37991e-14 0)
(4.45455 9.73168e-15 0)
(4.45455 1.3389e-14 0)
(4.45455 1.31689e-15 0)
(4.45455 -4.51578e-14 0)
(4.45455 -6.05571e-14 0)
(4.45455 -5.6103e-14 0)
(4.45455 -5.08188e-14 0)
(4.45455 2.34607e-14 0)
(4.45455 3.13054e-14 0)
(4.45455 6.3451e-14 0)
(4.45455 6.21574e-14 0)
(4.45455 7.69233e-14 0)
(4.45455 4.96719e-14 0)
(4.45455 4.24273e-14 0)
(4.45455 2.8725e-14 0)
(4.45455 8.95021e-14 0)
(4.45455 1.10219e-13 0)
(4.45455 1.05325e-13 0)
(4.45455 7.27326e-14 0)
(4.45455 6.05605e-14 0)
(4.45455 6.24174e-14 0)
(4.45455 2.09436e-14 0)
(4.45455 -2.88983e-14 0)
(4.45455 -5.94069e-14 0)
(4.45455 -5.56496e-14 0)
(4.45455 -3.79232e-14 0)
(4.45455 1.44858e-14 0)
(4.45455 8.78785e-14 0)
(4.45455 7.46962e-14 0)
(4.45455 6.21207e-14 0)
(4.45455 5.34659e-14 0)
(4.45455 -3.36791e-14 0)
(4.45455 -8.41412e-14 0)
(4.45455 -8.99355e-14 0)
(4.45455 -7.10756e-14 0)
(4.45455 -2.70047e-16 0)
(4.45455 2.22638e-14 0)
(4.45455 -3.31957e-14 0)
(4.45455 -5.62264e-14 0)
(4.45455 -7.18712e-14 0)
(4.45455 -2.81782e-14 0)
(4.45455 -4.18006e-14 0)
(4.45455 -3.3099e-14 0)
(4.45455 2.24939e-14 0)
(4.45455 6.79784e-14 0)
(4.45455 3.61829e-14 0)
(4.45455 4.77949e-14 0)
(4.45455 1.21954e-13 0)
(4.45455 1.47846e-13 0)
(4.45455 2.13934e-13 0)
(4.45455 1.33776e-13 0)
(4.45455 8.13941e-14 0)
(4.45455 3.4936e-14 0)
(4.45455 -2.34707e-15 0)
(4.45455 2.57178e-14 0)
(4.45455 1.08965e-13 0)
(4.45455 1.39387e-13 0)
(4.45455 8.38445e-14 0)
(4.45455 4.66647e-14 0)
(4.45455 -6.90319e-14 0)
(4.45455 -1.06485e-13 0)
(4.45455 -6.86185e-14 0)
(4.45455 9.24493e-15 0)
(4.45455 -2.07836e-14 0)
(4.45455 -6.36243e-14 0)
(4.45455 -5.39426e-14 0)
(4.45455 -3.89801e-14 0)
(4.45455 -1.34363e-13 0)
(4.45455 -1.24125e-13 0)
(4.45455 -8.22975e-14 0)
(4.45455 -5.6133e-14 0)
(4.45455 -3.22222e-14 0)
(4.45455 9.27494e-15 0)
(4.45455 8.95255e-14 0)
(4.45455 1.23288e-13 0)
(4.45455 9.12958e-14 0)
(4.45455 5.50462e-14 0)
(4.45455 8.56381e-14 0)
(4.45455 1.29242e-13 0)
(4.45455 9.5619e-14 0)
(4.45455 1.70363e-15 0)
(4.45455 2.97718e-15 0)
(4.45455 8.16474e-15 0)
(4.45455 2.20238e-14 0)
(4.45455 2.54144e-14 0)
(4.45455 5.93202e-14 0)
(4.45455 1.69636e-13 0)
(4.45455 1.94254e-13 0)
(4.45455 1.79554e-13 0)
(4.45455 9.19992e-14 0)
(4.45455 1.05762e-13 0)
(4.45455 7.99938e-14 0)
(4.45455 1.80298e-14 0)
(4.45455 5.89435e-15 0)
(4.45455 -2.17871e-14 0)
(4.45455 -1.64795e-14 0)
(4.45455 -1.00884e-14 0)
(4.45455 4.78749e-15 0)
(4.45455 2.60945e-14 0)
(4.45455 7.65132e-15 0)
(4.45455 1.05818e-14 0)
(4.45455 5.74099e-15 0)
(4.45455 6.73483e-14 0)
(4.45455 1.32363e-13 0)
(4.45455 1.00741e-13 0)
(4.45455 8.6985e-14 0)
(4.45455 1.12376e-13 0)
(4.45455 5.75166e-14 0)
(4.45455 4.61813e-14 0)
(4.45455 3.86467e-14 0)
(4.45455 6.48579e-14 0)
(4.45455 1.01814e-13 0)
(4.45455 1.19804e-13 0)
(4.45455 1.02624e-13 0)
(4.45455 3.53694e-14 0)
(4.45455 1.65095e-14 0)
(4.45455 3.81399e-15 0)
(4.45455 1.54327e-14 0)
(4.45455 4.11404e-15 0)
(4.45455 8.67049e-15 0)
(4.45455 1.92933e-14 0)
(4.45455 1.51326e-14 0)
(4.45455 -1.60794e-14 0)
(4.45455 -3.03286e-14 0)
(4.45455 -7.80135e-15 0)
(4.45455 4.50778e-14 0)
(4.45455 7.09623e-14 0)
(4.45455 8.26476e-14 0)
(4.45455 5.65898e-14 0)
(4.45455 -1.75664e-14 0)
(4.45455 -1.1772e-14 0)
(4.45455 1.81465e-14 0)
(4.45455 4.0357e-14 0)
(4.45455 6.03238e-14 0)
(4.45455 -3.14821e-14 0)
(4.45455 -1.28909e-13 0)
(4.45455 -9.69801e-14 0)
(4.45455 -2.42342e-14 0)
(4.45455 -3.94135e-14 0)
(4.45455 2.62745e-14 0)
(4.45455 1.23138e-13 0)
(4.45455 8.84153e-14 0)
(4.45455 9.59032e-14 0)
(4.45455 8.43479e-14 0)
(4.45455 1.48759e-13 0)
(4.45455 1.41818e-13 0)
(4.45455 1.04681e-13 0)
(4.45455 8.60382e-14 0)
(4.45455 9.2526e-14 0)
(4.45455 9.03723e-14 0)
(4.45455 2.4871e-15 0)
(4.45455 3.77765e-14 0)
(4.45455 3.53794e-14 0)
(4.45455 3.67297e-14 0)
(4.45455 4.4511e-14 0)
(4.45455 6.64081e-14 0)
(4.45455 7.48796e-14 0)
(4.45455 4.56512e-14 0)
(4.45455 1.34923e-14 0)
(4.45455 -4.39063e-14 0)
(4.45455 1.1842e-14 0)
(4.45455 1.06785e-14 0)
(4.45455 -4.06737e-16 0)
(4.45455 6.91119e-15 0)
(4.45455 7.85469e-15 0)
(4.45455 -7.13457e-16 0)
(4.45455 1.3429e-14 0)
(4.45455 7.72467e-15 0)
(4.45455 4.28007e-14 0)
(4.45455 -1.07352e-14 0)
(4.45455 -2.77448e-14 0)
(4.45455 2.50443e-14 0)
(4.45455 5.809e-14 0)
(4.45455 2.74914e-14 0)
(4.45455 -2.13237e-14 0)
(4.45455 -1.06845e-13 0)
(4.45455 -1.24988e-13 0)
(4.45455 -9.61233e-14 0)
(4.45455 -7.18224e-14 0)
(4.45455 -4.03436e-14 0)
(4.45455 -4.96252e-14 0)
(4.45455 -1.7583e-14 0)
(4.45455 -2.8685e-14 0)
(4.45455 -5.21257e-14 0)
(4.45455 4.93752e-15 0)
(4.45455 3.19489e-14 0)
(4.45455 -1.89633e-14 0)
(4.45455 -7.29093e-14 0)
(4.45455 -9.52364e-14 0)
(4.45455 -5.89002e-14 0)
(4.45455 -3.99269e-14 0)
(4.45455 1.07352e-15 0)
(4.45455 -3.57895e-14 0)
(4.45455 -6.39277e-14 0)
(4.45455 -4.75682e-14 0)
(4.45455 3.18655e-14 0)
(4.45455 4.68448e-14 0)
(4.45455 2.18371e-14 0)
(4.45455 3.87534e-14 0)
(4.45455 9.85229e-14 0)
(4.45455 -3.02486e-14 0)
(4.45455 -5.10622e-14 0)
(4.45455 -3.98002e-14 0)
(4.45455 -2.31873e-14 0)
(4.45455 -3.11387e-14 0)
(4.45455 -6.09772e-15 0)
(4.45455 2.93484e-14 0)
(4.45455 4.32741e-15 0)
(4.45455 -3.50227e-14 0)
(4.45455 5.55763e-15 0)
(4.45455 1.47359e-14 0)
(4.45455 8.61482e-15 0)
(4.45455 1.83265e-14 0)
(4.45455 3.96235e-14 0)
(4.45455 8.19375e-14 0)
(4.45455 6.2024e-14 0)
(4.45455 -4.70014e-14 0)
(4.45455 -4.63247e-14 0)
(4.45455 -9.02489e-15 0)
(4.45455 7.25125e-15 0)
(4.45455 -9.73501e-15 0)
(4.45455 -1.52426e-14 0)
(4.45455 -2.14704e-15 0)
(4.45455 2.42175e-14 0)
(4.45455 2.79215e-14 0)
(4.45455 5.64331e-14 0)
(4.45455 4.6178e-14 0)
(4.45455 -9.56165e-15 0)
(4.45455 -5.49028e-14 0)
(4.45455 -5.73466e-14 0)
(4.45455 -4.49611e-14 0)
(4.45455 -6.89619e-14 0)
(4.45455 -1.5167e-13 0)
(4.45455 -2.05099e-13 0)
(4.45455 -1.88733e-13 0)
(4.45455 -2.16871e-13 0)
(4.45455 -2.18278e-13 0)
(4.45455 -1.54033e-13 0)
(4.45455 2.02735e-14 0)
(4.45455 7.35665e-14 0)
(4.45455 -5.04087e-15 0)
(4.45455 -1.77731e-14 0)
(4.45455 -3.56928e-14 0)
(4.45455 -4.30508e-14 0)
(4.45455 -2.93051e-14 0)
(4.45455 -2.17404e-14 0)
(4.45455 -2.48776e-14 0)
(4.45455 -7.43862e-14 0)
(4.45455 -1.05435e-13 0)
(4.45455 -5.28425e-14 0)
(4.45455 -4.60813e-14 0)
(4.45455 -1.00004e-13 0)
(4.45455 -1.07379e-13 0)
(4.45455 -4.43943e-14 0)
(4.45455 3.50894e-14 0)
(4.45455 8.97822e-14 0)
(4.45455 6.03904e-14 0)
(4.45455 2.07869e-14 0)
(4.45455 -1.08152e-14 0)
(4.45455 2.61212e-14 0)
(4.45455 8.64149e-14 0)
(4.45455 1.31909e-13 0)
(4.45455 1.7509e-13 0)
(4.45455 1.69129e-13 0)
(4.45455 1.12586e-13 0)
(4.45455 8.66783e-14 0)
(4.45455 9.71801e-14 0)
(4.45455 9.73768e-14 0)
(4.45455 7.72667e-14 0)
(4.45455 4.67047e-14 0)
(4.45455 5.38293e-14 0)
(4.45455 4.53278e-14 0)
(4.45455 -1.25088e-14 0)
(4.45455 -3.29757e-14 0)
(4.45455 -7.47096e-14 0)
(4.45455 -9.4783e-14 0)
(4.45455 -4.75549e-14 0)
(4.45455 3.27823e-14 0)
(4.45455 1.35513e-13 0)
(4.45455 1.18489e-13 0)
(4.45455 3.25656e-14 0)
(4.45455 3.84633e-14 0)
(4.45455 7.3176e-14 0)
(4.45455 7.31426e-14 0)
(4.45455 4.00269e-14 0)
(4.45455 2.03669e-14 0)
(4.45455 1.71696e-15 0)
(4.45455 -6.30542e-14 0)
(4.45455 -1.14683e-13 0)
(4.45455 -1.20964e-13 0)
(4.45455 -1.3737e-13 0)
(4.45455 -1.89929e-13 0)
(4.45455 -2.01255e-13 0)
(4.45455 -1.73053e-13 0)
(4.45455 -8.95421e-14 0)
(4.45455 2.21705e-15 0)
(4.45455 1.938e-14 0)
(4.45455 -3.09387e-15 0)
(4.45455 5.32759e-15 0)
(4.45455 7.96504e-14 0)
(4.45455 1.29589e-13 0)
(4.45455 1.18044e-13 0)
(4.45455 1.06135e-13 0)
(4.45455 5.41894e-14 0)
(4.45455 5.36759e-16 0)
(4.45455 -7.34794e-15 0)
(4.45455 3.30224e-14 0)
(4.45455 4.20806e-14 0)
(4.45455 6.74516e-14 0)
(4.45455 1.59901e-13 0)
(4.45455 1.82575e-13 0)
(4.45455 1.66762e-13 0)
(4.45455 1.49869e-13 0)
(4.45455 1.29209e-13 0)
(4.45455 3.10687e-14 0)
(4.45455 8.99489e-15 0)
(4.45455 1.1862e-14 0)
(4.45455 7.09289e-14 0)
(4.45455 7.36394e-14 0)
(4.45455 -2.02309e-14 0)
(4.45455 8.00138e-17 0)
(4.45455 2.26839e-14 0)
(4.45455 6.02904e-14 0)
(4.45455 6.55613e-14 0)
(4.45455 6.43945e-14 0)
(4.45455 8.12174e-14 0)
(4.45455 6.10739e-14 0)
(4.45455 2.52177e-14 0)
(4.45455 -1.65695e-14 0)
(4.45455 -6.96254e-14 0)
(4.45455 -1.40538e-13 0)
(4.45455 -1.39271e-13 0)
(4.45455 -1.60581e-13 0)
(4.45455 -1.9334e-13 0)
(4.45455 -1.85622e-13 0)
(4.45455 -8.38812e-14 0)
(4.45455 -3.30724e-14 0)
(4.45455 -1.93367e-16 0)
(4.45455 7.15757e-14 0)
(4.45455 7.11656e-14 0)
(4.45455 1.79698e-14 0)
(4.45455 -7.93804e-15 0)
(4.45455 -5.58663e-14 0)
(4.45455 -3.92568e-14 0)
(4.45455 1.05785e-14 0)
(4.45455 -2.01601e-14 0)
(4.45455 1.40791e-14 0)
(4.45455 5.03687e-14 0)
(4.45455 5.67165e-14 0)
(4.45455 1.01197e-13 0)
(4.45455 1.05912e-13 0)
(4.45455 8.86253e-14 0)
(4.45455 1.13783e-13 0)
(4.45455 1.69306e-13 0)
(4.45455 1.56454e-13 0)
(4.45455 1.12239e-13 0)
(4.45455 1.09512e-13 0)
(4.45455 1.64292e-13 0)
(4.45455 1.48692e-14 0)
(4.45455 -6.23955e-14 0)
(4.45455 3.16721e-16 0)
(4.45455 -3.59062e-15 0)
(4.45455 -9.16825e-15 0)
(4.45455 -2.37641e-14 0)
(4.45455 -3.14854e-14 0)
(4.45455 4.74415e-15 0)
(4.45455 6.87619e-14 0)
(4.45455 6.55347e-14 0)
(4.45455 9.2376e-14 0)
(4.45455 3.1112e-14 0)
(4.45455 1.42691e-14 0)
(4.45455 3.25856e-14 0)
(4.45455 2.76081e-14 0)
(4.45455 9.77169e-15 0)
(4.45455 -7.54697e-14 0)
(4.45455 -1.41751e-13 0)
(4.45455 -1.94467e-14 0)
(4.45455 4.79549e-14 0)
(4.45455 8.95655e-14 0)
(4.45455 -6.91986e-14 0)
(4.45455 -1.33166e-13 0)
(4.45455 -1.29519e-13 0)
(4.45455 -1.44552e-13 0)
(4.45455 -7.5103e-14 0)
(4.45455 -1.90966e-14 0)
(4.45455 3.52994e-14 0)
(4.45455 -7.75801e-15 0)
(4.45455 1.48492e-14 0)
(4.45455 9.2876e-14 0)
(4.45455 9.57732e-14 0)
(4.45455 -5.83434e-15 0)
(4.45455 -6.40977e-14 0)
(4.45455 -1.30456e-14 0)
(4.45455 1.48719e-13 0)
(4.45455 2.55778e-13 0)
(4.45455 2.81892e-13 0)
(4.45455 2.97851e-13 0)
(4.45455 2.36818e-13 0)
(4.45455 1.98461e-13 0)
(4.45455 2.05988e-14 0)
(4.45455 -1.12719e-14 0)
(4.45455 -7.47429e-14 0)
(4.45455 -1.01641e-13 0)
(4.45455 -6.79484e-14 0)
(4.45455 -4.57779e-14 0)
(4.45455 -3.50127e-14 0)
(4.45455 2.72814e-14 0)
(4.45455 4.76816e-14 0)
(4.45455 1.97101e-14 0)
(4.45455 2.01268e-14 0)
(4.45455 4.53478e-14 0)
(4.45455 1.19361e-13 0)
(4.45455 2.09006e-13 0)
(4.45455 1.86979e-13 0)
(4.45455 1.21608e-13 0)
(4.45455 6.48112e-14 0)
(4.45455 -2.07169e-14 0)
(4.45455 1.22855e-14 0)
(4.45455 9.38162e-15 0)
(4.45455 -5.43294e-14 0)
(4.45455 -1.11649e-13 0)
(4.45455 -1.15733e-13 0)
(4.45455 -8.60915e-14 0)
(4.45455 -6.05338e-14 0)
(4.45455 -5.2259e-14 0)
(4.45455 6.40111e-16 0)
(4.45455 7.23458e-16 0)
(4.45455 -2.74514e-14 0)
(4.45455 -3.74831e-14 0)
(4.45455 -1.26922e-14 0)
(4.45455 -7.36794e-16 0)
(4.45455 -2.46476e-14 0)
(4.45455 -1.04318e-14 0)
(4.45455 -1.76697e-15 0)
(4.45455 7.23592e-14 0)
(4.45455 1.81215e-13 0)
(4.45455 1.37964e-13 0)
(4.45455 1.00521e-13 0)
(4.45455 1.44055e-13 0)
(4.45455 9.60775e-14 0)
(4.45455 1.05318e-14 0)
(4.45455 -1.88699e-15 0)
(4.45455 -3.71731e-14 0)
(4.45455 -3.92401e-14 0)
(4.45455 1.41758e-14 0)
(4.45455 2.96284e-14 0)
(4.45455 2.91384e-14 0)
(4.45455 7.20891e-14 0)
(4.45455 4.68448e-14 0)
(4.45455 1.94367e-15 0)
(4.45455 -3.2719e-14 0)
(4.45455 8.90487e-15 0)
(4.45455 1.24181e-13 0)
(4.45455 1.58184e-13 0)
(4.45455 1.39124e-13 0)
(4.45455 4.76016e-14 0)
(4.45455 3.59996e-14 0)
(4.45455 1.67562e-14 0)
(4.45455 2.31707e-15 0)
(4.45455 -2.32907e-14 0)
(4.45455 2.92717e-15 0)
(4.45455 4.88951e-14 0)
(4.45455 7.82102e-14 0)
(4.45455 9.72868e-14 0)
(4.45455 1.04911e-13 0)
(4.45455 3.86933e-14 0)
(4.45455 5.17089e-15 0)
(4.45455 3.42759e-14 0)
(4.45455 4.21339e-14 0)
(4.45455 9.53998e-14 0)
(4.45455 1.11846e-13 0)
(4.45455 1.13016e-13 0)
(4.45455 7.00488e-14 0)
(4.45455 4.22406e-14 0)
(4.45455 6.41411e-14 0)
(4.45455 4.38442e-14 0)
(4.45455 4.02603e-14 0)
(4.45455 2.95851e-14 0)
(4.45455 6.00437e-15 0)
(4.45455 -2.31923e-14 0)
(4.45455 -1.08352e-15 0)
(4.45455 1.45692e-14 0)
(4.45455 2.57745e-14 0)
(4.45455 3.16588e-14 0)
(4.45455 3.15154e-14 0)
(4.45455 2.06902e-14 0)
(4.45455 -9.22826e-15 0)
(4.45455 -9.80503e-15 0)
(4.45455 3.72931e-14 0)
(4.45455 5.51929e-14 0)
(4.45455 2.47109e-14 0)
(4.45455 9.21159e-15 0)
(4.45455 1.61261e-14 0)
(4.45455 1.3759e-14 0)
(4.45455 -5.28091e-15 0)
(4.45455 -6.66782e-18 0)
(4.45455 2.03135e-14 0)
(4.45455 2.06469e-14 0)
(4.45455 2.85049e-15 0)
(4.45455 3.36725e-16 0)
(4.45455 2.22805e-14 0)
(4.45455 1.16327e-13 0)
(4.45455 1.47309e-13 0)
(4.45455 1.27175e-13 0)
(4.45455 8.14874e-14 0)
(4.45455 5.27424e-14 0)
(4.45455 4.78383e-14 0)
(4.45455 4.40743e-14 0)
(4.45455 6.39877e-14 0)
(4.45455 1.00784e-13 0)
(4.45455 1.45545e-13 0)
(4.45455 2.46729e-13 0)
(4.45455 2.62599e-13 0)
(4.45455 2.01118e-13 0)
(4.45455 2.05589e-13 0)
(4.45455 1.45625e-13 0)
(4.45455 7.61165e-14 0)
(4.45455 3.2729e-14 0)
(4.45455 -7.83469e-16 0)
(4.45455 -2.64026e-14 0)
(4.45455 -1.06852e-14 0)
(4.45455 -8.66816e-15 0)
(4.45455 1.69529e-14 0)
(4.45455 4.12538e-14 0)
(4.45455 -4.76416e-15 0)
(4.45455 -4.94152e-14 0)
(4.45455 -5.05054e-14 0)
(4.45455 -8.67917e-14 0)
(4.45455 -9.01989e-14 0)
(4.45455 -5.44427e-14 0)
(4.45455 -3.844e-14 0)
(4.45455 -3.23756e-14 0)
(4.45455 -4.11104e-14 0)
(4.45455 -6.50279e-14 0)
(4.45455 -8.1014e-14 0)
(4.45455 -6.90853e-14 0)
(4.45455 -3.52261e-14 0)
(4.45455 -2.94251e-14 0)
(4.45455 -3.84866e-14 0)
(4.45455 -9.23493e-15 0)
(4.45455 -3.82233e-14 0)
(4.45455 -5.12489e-14 0)
(4.45455 -4.17239e-14 0)
(4.45455 -2.24639e-14 0)
(4.45455 -1.75297e-14 0)
(4.45455 3.29657e-14 0)
(4.45455 8.62316e-14 0)
(4.45455 7.17291e-14 0)
(4.45455 7.66199e-14 0)
(4.45455 1.5224e-13 0)
(4.45455 2.02412e-13 0)
(4.45455 2.70137e-13 0)
(4.45455 3.24323e-13 0)
(4.45455 3.0816e-13 0)
(4.45455 1.51343e-13 0)
(4.45455 1.10786e-13 0)
(4.45455 7.30593e-14 0)
(4.45455 2.70813e-14 0)
(4.45455 6.25208e-14 0)
(4.45455 3.18088e-14 0)
(4.45455 5.9677e-15 0)
(4.45455 -4.53412e-15 0)
(4.45455 -5.43427e-15 0)
(4.45455 -1.70163e-14 0)
(4.45455 -7.80568e-14 0)
(4.45455 -1.35863e-13 0)
(4.45455 -1.42271e-13 0)
(4.45455 -1.30393e-13 0)
(4.45455 -1.07352e-13 0)
(4.45455 -6.38744e-14 0)
(4.45455 -6.03404e-14 0)
(4.45455 -8.93921e-14 0)
(4.45455 -1.80034e-13 0)
(4.45455 -1.61658e-13 0)
(4.45455 -9.31294e-14 0)
(4.45455 8.53481e-16 0)
(4.45455 2.32273e-14 0)
(4.45455 -2.20105e-14 0)
(4.45455 -2.5371e-14 0)
(4.45455 3.861e-14 0)
(4.45455 -1.06418e-14 0)
(4.45455 -6.96087e-14 0)
(4.45455 -5.16589e-14 0)
(4.45455 -1.35723e-14 0)
(4.45455 3.42459e-14 0)
(4.45455 4.40743e-15 0)
(4.45455 -2.41075e-14 0)
(4.45455 7.45462e-15 0)
(4.45455 -5.57096e-15 0)
(4.45455 2.84716e-15 0)
(4.45455 3.14988e-14 0)
(4.45455 5.89268e-14 0)
(4.45455 5.5933e-14 0)
(4.45455 5.2339e-14 0)
(4.45455 4.12805e-14 0)
(4.45455 7.49329e-14 0)
(4.45455 9.08524e-14 0)
(4.45455 4.49211e-14 0)
(4.45455 -9.84837e-15 0)
(4.45455 -2.41047e-14 0)
(4.45455 -5.67431e-15 0)
(4.45455 -7.9147e-15 0)
(4.45455 6.30109e-16 0)
(4.45455 -9.01156e-15 0)
(4.45455 -2.11437e-14 0)
(4.45455 -3.62096e-14 0)
(4.45455 -1.15613e-13 0)
(4.45455 -1.08695e-13 0)
(4.45455 -8.54614e-14 0)
(4.45455 -4.20306e-14 0)
(4.45455 -4.15638e-14 0)
(4.45455 -2.97351e-14 0)
(4.45455 -4.20839e-14 0)
(4.45455 -9.62633e-14 0)
(4.45455 -3.89801e-14 0)
(4.45455 1.24355e-15 0)
(4.45455 -3.04953e-14 0)
(4.45455 -1.21958e-13 0)
(4.45455 -1.26202e-13 0)
(4.45455 -3.59029e-14 0)
(4.45455 -6.67449e-15 0)
(4.45455 -3.874e-15 0)
(4.45455 -7.59131e-15 0)
(4.45455 -6.06871e-14 0)
(4.45455 -9.50631e-14 0)
(4.45455 -5.92436e-14 0)
(4.45455 -8.32977e-14 0)
(4.45455 -1.32933e-13 0)
(4.45455 -1.7454e-13 0)
(4.45455 -2.0977e-13 0)
(4.45455 -1.67242e-13 0)
(4.45455 -1.19497e-13 0)
(4.45455 -1.08592e-13 0)
(4.45455 -9.21392e-14 0)
(4.45455 -1.12783e-13 0)
(4.45455 -1.10749e-13 0)
(4.45455 -6.01837e-14 0)
(4.45455 -5.57296e-14 0)
(4.45455 -9.59166e-14 0)
(4.45455 -6.39397e-14 0)
(4.45455 5.38093e-15 0)
(4.45455 2.01368e-14 0)
(4.45455 2.81782e-14 0)
(4.45455 6.71449e-15 0)
(4.45455 3.98069e-15 0)
(4.45455 2.66579e-14 0)
(4.45455 8.83286e-14 0)
(4.45455 8.39645e-14 0)
(4.45455 4.8135e-14 0)
(4.45455 -2.49043e-14 0)
(4.45455 -7.27959e-14 0)
(4.45455 -3.0992e-14 0)
(4.45455 3.72898e-14 0)
(4.45455 -7.75467e-15 0)
(4.45455 -4.8445e-14 0)
(4.45455 -5.61264e-14 0)
(4.45455 -8.20042e-14 0)
(4.45455 -5.86101e-14 0)
(4.45455 -3.14488e-14 0)
(4.45455 -3.82766e-14 0)
(4.45455 -6.32509e-14 0)
(4.45455 -8.53981e-14 0)
(4.45455 -1.15813e-13 0)
(4.45455 -1.46515e-13 0)
(4.45455 -8.80619e-14 0)
(4.45455 2.60712e-14 0)
(4.45455 9.01489e-14 0)
(4.45455 6.57414e-14 0)
(4.45455 -1.69096e-14 0)
(4.45455 -7.68199e-14 0)
(4.45455 -7.59598e-14 0)
(4.45455 -6.21407e-14 0)
(4.45455 -2.8815e-14 0)
(4.45455 3.97902e-14 0)
(4.45455 -6.96454e-15 0)
(4.45455 -9.18492e-14 0)
(4.45455 -1.07375e-13 0)
(4.45455 -8.50314e-14 0)
(4.45455 -6.08705e-14 0)
(4.45455 -4.61903e-14 0)
(4.45455 8.97488e-15 0)
(4.45455 5.09755e-14 0)
(4.45455 3.45593e-14 0)
(4.45455 -4.55079e-15 0)
(4.45455 1.29356e-15 0)
(4.45455 7.66766e-14 0)
(4.45455 9.77502e-14 0)
(4.45455 7.99838e-14 0)
(4.45455 8.23909e-14 0)
(4.45455 5.37326e-14 0)
(4.45455 5.23124e-14 0)
(4.45455 5.90069e-14 0)
(4.45455 7.47796e-14 0)
(4.45455 8.33744e-14 0)
(4.45455 2.3034e-14 0)
(4.45455 1.43958e-14 0)
(4.45455 -4.31274e-14 0)
(4.45455 -5.71365e-14 0)
(4.45455 -8.39078e-14 0)
(4.45455 -1.27422e-13 0)
(4.45455 -1.45585e-13 0)
(4.45455 -1.61915e-13 0)
(4.45455 -1.74393e-13 0)
(4.45455 -8.53447e-14 0)
(4.45455 -1.01254e-13 0)
(4.45455 -6.58347e-14 0)
(4.45455 1.64295e-14 0)
(4.45455 6.28775e-14 0)
(4.45455 3.37225e-14 0)
(4.45455 -2.17404e-14 0)
(4.45455 -6.45645e-14 0)
(4.45455 -6.82018e-14 0)
(4.45455 -8.57348e-14 0)
(4.45455 -7.48229e-14 0)