/*--------------------------------*- C++ -*----------------------------------*\
| =========                 |                                                 |
| \\      /  F ield         | OpenFOAM: The Open Source CFD Toolbox           |
|  \\    /   O peration     | Version:  2206                                  |
|   \\  /    A nd           | Website:  www.openfoam.com                      |
|    \\/     M anipulation  |                                                 |
\*---------------------------------------------------------------------------*/
FoamFile
{
    version     2.0;
    format      ascii;
    arch        "LSB;label=32;scalar=64";
    class       volVectorField;
    location    "0.02";
    object      U;
}
// * * * * * * * * * * * * * * * * * * * * * * * * * * * * * * * * * * * * * //

dimensions      [0 1 -1 0 0 0 0];

internalField   nonuniform List<vector> 
4800
(
(3.76768 -4.23406e-16 0)
(3.76768 6.13439e-15 0)
(3.76768 -2.06036e-15 0)
(3.76768 1.46825e-14 0)
(3.76768 1.77764e-14 0)
(3.76768 1.19354e-14 0)
(3.76768 -8.77818e-15 0)
(3.76768 7.10589e-14 0)
(3.76768 1.14253e-13 0)
(3.76768 1.3505e-13 0)
(3.76768 1.37204e-13 0)
(3.76768 1.71303e-13 0)
(3.76768 2.17918e-13 0)
(3.76768 2.07553e-13 0)
(3.76768 1.65222e-13 0)
(3.76768 1.55437e-13 0)
(3.76768 1.79594e-13 0)
(3.76768 1.21911e-13 0)
(3.76768 9.43163e-15 0)
(3.76768 -1.37324e-14 0)
(3.76768 5.11388e-14 0)
(3.76768 6.52479e-14 0)
(3.76768 3.34258e-14 0)
(3.76768 3.12254e-14 0)
(3.76768 2.15471e-14 0)
(3.76768 1.32223e-14 0)
(3.76768 2.67313e-14 0)
(3.76768 2.62945e-14 0)
(3.76768 4.00136e-14 0)
(3.76768 5.32959e-14 0)
(3.76768 6.10405e-14 0)
(3.76768 6.47645e-14 0)
(3.76768 1.02584e-13 0)
(3.76768 1.67896e-13 0)
(3.76768 1.92737e-13 0)
(3.76768 1.27165e-13 0)
(3.76768 8.53447e-14 0)
(3.76768 5.89268e-14 0)
(3.76768 7.02688e-14 0)
(3.76768 7.08956e-14 0)
(3.76768 -8.94488e-15 0)
(3.76768 -2.62245e-14 0)
(3.76768 -6.76183e-14 0)
(3.76768 -6.29675e-14 0)
(3.76768 -2.06569e-14 0)
(3.76768 1.44825e-14 0)
(3.76768 1.00121e-13 0)
(3.76768 1.35277e-13 0)
(3.76768 1.3568e-13 0)
(3.76768 8.3081e-14 0)
(3.76768 7.26659e-14 0)
(3.76768 1.01277e-13 0)
(3.76768 1.73473e-13 0)
(3.76768 2.43229e-13 0)
(3.76768 2.7125e-13 0)
(3.76768 2.6948e-13 0)
(3.76768 2.19235e-13 0)
(3.76768 1.1686e-13 0)
(3.76768 3.48894e-14 0)
(3.76768 2.26739e-14 0)
(3.76768 5.26191e-14 0)
(3.76768 7.48529e-14 0)
(3.76768 4.23206e-14 0)
(3.76768 7.47029e-14 0)
(3.76768 6.87419e-14 0)
(3.76768 3.38258e-14 0)
(3.76768 5.53662e-14 0)
(3.76768 6.9422e-14 0)
(3.76768 2.83449e-14 0)
(3.76768 -6.39144e-14 0)
(3.76768 -7.81802e-14 0)
(3.76768 -3.49894e-14 0)
(3.76768 5.52429e-15 0)
(3.76768 8.02105e-14 0)
(3.76768 1.03261e-13 0)
(3.76768 1.03151e-13 0)
(3.76768 3.04986e-14 0)
(3.76768 2.47676e-14 0)
(3.76768 1.04065e-13 0)
(3.76768 9.11526e-14 0)
(3.76768 -5.53096e-15 0)
(3.76768 -4.20073e-16 0)
(3.76768 2.44709e-15 0)
(3.76768 -1.97401e-14 0)
(3.76768 -2.78815e-14 0)
(3.76768 3.72164e-14 0)
(3.76768 4.50511e-14 0)
(3.76768 3.66763e-14 0)
(3.76768 5.0392e-14 0)
(3.76768 1.26655e-14 0)
(3.76768 2.65879e-14 0)
(3.76768 5.819e-14 0)
(3.76768 4.12438e-14 0)
(3.76768 8.3221e-14 0)
(3.76768 1.02634e-13 0)
(3.76768 1.19577e-13 0)
(3.76768 3.95468e-14 0)
(3.76768 -1.80164e-14 0)
(3.76768 -1.07885e-14 0)
(3.76768 -7.06455e-14 0)
(3.76768 -6.16306e-14 0)
(3.76768 2.74414e-14 0)
(3.76768 1.42665e-13 0)
(3.76768 1.22895e-13 0)
(3.76768 1.5452e-13 0)
(3.76768 1.64412e-13 0)
(3.76768 1.82308e-13 0)
(3.76768 1.7268e-13 0)
(3.76768 1.33266e-13 0)
(3.76768 5.70932e-14 0)
(3.76768 -2.3394e-14 0)
(3.76768 -2.66146e-14 0)
(3.76768 4.56646e-14 0)
(3.76768 6.02471e-14 0)
(3.76768 1.32563e-13 0)
(3.76768 2.47043e-13 0)
(3.76768 3.4952e-13 0)
(3.76768 3.21756e-13 0)
(3.76768 3.00785e-13 0)
(3.76768 2.6169e-13 0)
(3.76768 7.63799e-15 0)
(3.76768 5.73799e-14 0)
(3.76768 7.49996e-14 0)
(3.76768 4.53712e-14 0)
(3.76768 -3.856e-14 0)
(3.76768 -6.08472e-14 0)
(3.76768 -3.05153e-14 0)
(3.76768 6.90819e-14 0)
(3.76768 8.22275e-14 0)
(3.76768 5.42127e-14 0)
(3.76768 1.70863e-14 0)
(3.76768 1.60661e-14 0)
(3.76768 -1.33123e-14 0)
(3.76768 -4.77449e-14 0)
(3.76768 -3.4976e-14 0)
(3.76768 -3.21689e-14 0)
(3.76768 1.07785e-14 0)
(3.76768 -1.06352e-15 0)
(3.76768 -2.07302e-14 0)
(3.76768 -4.28274e-14 0)
(3.76768 -5.50562e-14 0)
(3.76768 1.07959e-13 0)
(3.76768 1.48696e-13 0)
(3.76768 1.47179e-13 0)
(3.76768 1.3555e-13 0)
(3.76768 5.14355e-14 0)
(3.76768 3.34391e-15 0)
(3.76768 -7.08156e-14 0)
(3.76768 -1.78231e-14 0)
(3.76768 6.64281e-14 0)
(3.76768 1.04041e-13 0)
(3.76768 8.75084e-14 0)
(3.76768 1.09759e-13 0)
(3.76768 1.55774e-13 0)
(3.76768 2.16317e-13 0)
(3.76768 2.43092e-13 0)
(3.76768 2.00988e-13 0)
(3.76768 1.53266e-13 0)
(3.76768 7.10823e-14 0)
(3.76768 1.1206e-13 0)
(3.76768 1.81498e-14 0)
(3.76768 3.63096e-14 0)
(3.76768 2.64446e-14 0)
(3.76768 -2.26706e-15 0)
(3.76768 -4.01069e-15 0)
(3.76768 -1.91966e-14 0)
(3.76768 3.32391e-15 0)
(3.76768 1.27755e-14 0)
(3.76768 8.45813e-15 0)
(3.76768 1.81331e-14 0)
(3.76768 1.43358e-15 0)
(3.76768 -3.40392e-14 0)
(3.76768 -5.00253e-14 0)
(3.76768 -8.80985e-14 0)
(3.76768 -8.93888e-14 0)
(3.76768 -5.27291e-14 0)
(3.76768 -2.49977e-14 0)
(3.76768 3.20989e-14 0)
(3.76768 9.29127e-14 0)
(3.76768 1.3517e-13 0)
(3.76768 7.9317e-14 0)
(3.76768 2.03235e-14 0)
(3.76768 1.69163e-14 0)
(3.76768 6.97554e-14 0)
(3.76768 9.91238e-14 0)
(3.76768 1.17844e-13 0)
(3.76768 8.38545e-14 0)
(3.76768 -1.44992e-14 0)
(3.76768 -3.85767e-14 0)
(3.76768 -2.94384e-14 0)
(3.76768 3.31991e-14 0)
(3.76768 3.35291e-14 0)
(3.76768 6.09472e-14 0)
(3.76768 7.60298e-14 0)
(3.76768 3.66597e-14 0)
(3.76768 8.45146e-15 0)
(3.76768 -9.54832e-15 0)
(3.76768 4.33075e-15 0)
(3.76768 -2.27639e-14 0)
(3.76768 -3.28811e-14 0)
(3.76768 -1.28289e-14 0)
(3.76768 -1.80264e-14 0)
(3.76768 2.2894e-14 0)
(3.76768 4.59579e-14 0)
(3.76768 3.90968e-14 0)
(3.76768 1.91433e-14 0)
(3.76768 -1.04285e-14 0)
(3.76768 -1.47986e-13 0)
(3.76768 -1.91616e-13 0)
(3.76768 -1.50649e-13 0)
(3.76768 -9.85037e-14 0)
(3.76768 -1.07159e-13 0)
(3.76768 -8.38645e-14 0)
(3.76768 -4.48377e-14 0)
(3.76768 -6.68515e-14 0)
(3.76768 -1.65662e-14 0)
(3.76768 -2.58678e-14 0)
(3.76768 -1.5566e-14 0)
(3.76768 9.18192e-14 0)
(3.76768 1.71636e-13 0)
(3.76768 1.86292e-13 0)
(3.76768 6.48445e-14 0)
(3.76768 7.46196e-14 0)
(3.76768 1.02921e-13 0)
(3.76768 9.49897e-14 0)
(3.76768 1.34367e-13 0)
(3.76768 1.68626e-13 0)
(3.76768 1.79221e-13 0)
(3.76768 9.27794e-14 0)
(3.76768 2.30106e-14 0)
(3.76768 5.06087e-14 0)
(3.76768 6.9462e-14 0)
(3.76768 8.63016e-14 0)
(3.76768 4.85917e-14 0)
(3.76768 9.76835e-16 0)
(3.76768 -1.19071e-13 0)
(3.76768 -1.01931e-13 0)
(3.76768 2.63379e-16 0)
(3.76768 3.09387e-14 0)
(3.76768 2.3851e-14 0)
(3.76768 -2.01902e-14 0)
(3.76768 -2.34774e-14 0)
(3.76768 2.73647e-14 0)
(3.76768 6.48212e-14 0)
(3.76768 3.70531e-14 0)
(3.76768 -1.04718e-14 0)
(3.76768 -2.51777e-14 0)
(3.76768 -1.84865e-14 0)
(3.76768 -3.05753e-14 0)
(3.76768 -2.1117e-14 0)
(3.76768 -6.20107e-16 0)
(3.76768 1.50259e-14 0)
(3.76768 -7.06789e-16 0)
(3.76768 -1.83365e-16 0)
(3.76768 -7.60798e-15 0)
(3.76768 2.1337e-16 0)
(3.76768 1.46792e-14 0)
(3.76768 2.37108e-14 0)
(3.76768 1.05852e-14 0)
(3.76768 3.44526e-14 0)
(3.76768 8.30143e-15 0)
(3.76768 1.15187e-13 0)
(3.76768 1.61011e-13 0)
(3.76768 1.45102e-13 0)
(3.76768 2.05642e-13 0)
(3.76768 2.17087e-13 0)
(3.76768 2.08939e-13 0)
(3.76768 1.83452e-13 0)
(3.76768 1.40154e-13 0)
(3.76768 1.14556e-13 0)
(3.76768 1.26562e-13 0)
(3.76768 4.97886e-14 0)
(3.76768 -5.40427e-15 0)
(3.76768 -3.96502e-14 0)
(3.76768 -6.57847e-14 0)
(3.76768 -6.97454e-14 0)
(3.76768 -1.02838e-13 0)
(3.76768 -3.75932e-14 0)
(3.76768 -2.09369e-15 0)
(3.76768 1.5148e-14 0)
(3.76768 1.78331e-14 0)
(3.76768 1.78364e-14 0)
(3.76768 -2.45409e-14 0)
(3.76768 -2.27773e-14 0)
(3.76768 6.97954e-14 0)
(3.76768 1.05898e-13 0)
(3.76768 5.29691e-14 0)
(3.76768 5.54929e-14 0)
(3.76768 5.1969e-14 0)
(3.76768 9.16392e-14 0)
(3.76768 1.35477e-13 0)
(3.76768 1.12729e-13 0)
(3.76768 5.86968e-14 0)
(3.76768 6.89452e-15 0)
(3.76768 -4.58946e-14 0)
(3.76768 -7.49363e-14 0)
(3.76768 -1.00887e-13 0)
(3.76768 -9.54898e-14 0)
(3.76768 -8.17541e-14 0)
(3.76768 -5.12655e-14 0)
(3.76768 6.51212e-14 0)
(3.76768 9.52965e-14 0)
(3.76768 1.05618e-14 0)
(3.76768 -1.28689e-15 0)
(3.76768 9.12091e-14 0)
(3.76768 1.21024e-13 0)
(3.76768 1.21278e-13 0)
(3.76768 8.79952e-14 0)
(3.76768 7.80868e-14 0)
(3.76768 5.09955e-14 0)
(3.76768 3.89901e-14 0)
(3.76768 4.82883e-14 0)
(3.76768 3.13854e-14 0)
(3.76768 -2.70813e-14 0)
(3.76768 -9.65667e-14 0)
(3.76768 3.94735e-15 0)
(3.76768 1.82398e-14 0)
(3.76768 -6.42478e-14 0)
(3.76768 -4.2664e-14 0)
(3.76768 -8.13585e-14 0)
(3.76768 -2.06302e-14 0)
(3.76768 -1.79664e-14 0)
(3.76768 -4.87117e-14 0)
(3.76768 -4.38542e-14 0)
(3.76768 -6.98787e-15 0)
(3.76768 5.38893e-14 0)
(3.76768 7.23225e-14 0)
(3.76768 5.15422e-14 0)
(3.76768 5.24691e-14 0)
(3.76768 6.15373e-14 0)
(3.76768 4.74082e-14 0)
(3.76768 6.3541e-14 0)
(3.76768 1.04435e-13 0)
(3.76768 3.94335e-14 0)
(3.76768 2.15837e-14 0)
(3.76768 -8.81486e-15 0)
(3.76768 -2.39975e-14 0)
(3.76768 -3.04419e-14 0)
(3.76768 -2.6738e-15 0)
(3.76768 -4.28607e-14 0)
(3.76768 -5.66198e-14 0)
(3.76768 -9.39629e-14 0)
(3.76768 -8.99889e-14 0)
(3.76768 -1.07282e-13 0)
(3.76768 -4.69048e-14 0)
(3.76768 -1.49626e-14 0)
(3.76768 -7.03121e-15 0)
(3.76768 -6.00304e-14 0)
(3.76768 -1.04141e-13 0)
(3.76768 -1.5539e-13 0)
(3.76768 -1.83385e-13 0)
(3.76768 -1.35177e-13 0)
(3.76768 -9.77435e-14 0)
(3.76768 -1.06048e-13 0)
(3.76768 -1.07889e-13 0)
(3.76768 -8.18241e-14 0)
(3.76768 -1.68296e-14 0)
(3.76768 -1.04685e-15 0)
(3.76768 3.1022e-14 0)
(3.76768 6.08562e-14 0)
(3.76768 -1.61128e-14 0)
(3.76768 -4.73648e-14 0)
(3.76768 -3.51094e-14 0)
(3.76768 4.28407e-15 0)
(3.76768 -2.93251e-14 0)
(3.76768 -5.1939e-14 0)
(3.76768 1.01084e-14 0)
(3.76768 5.69465e-14 0)
(3.76768 9.23293e-14 0)
(3.76768 6.35776e-14 0)
(3.76768 4.72315e-14 0)
(3.76768 -9.60166e-15 0)
(3.76768 -3.6403e-14 0)
(3.76768 -6.88252e-14 0)
(3.76768 -8.44746e-14 0)
(3.76768 -1.50993e-14 0)
(3.76768 7.37194e-14 0)
(3.76768 1.19304e-13 0)
(3.76768 9.49431e-14 0)
(3.76768 2.31607e-14 0)
(3.76768 -3.3009e-14 0)
(3.76768 -4.45877e-14 0)
(3.76768 1.04485e-14 0)
(3.76768 -3.32291e-14 0)
(3.76768 -6.30009e-14 0)
(3.76768 -4.09971e-14 0)
(3.76768 -3.61429e-14 0)
(3.76768 -5.31058e-14 0)
(3.76768 -9.69467e-14 0)
(3.76768 -8.18975e-14 0)
(3.76768 -4.35342e-14 0)
(3.76768 -4.98519e-14 0)
(3.76768 -9.02823e-14 0)
(3.76768 -4.8515e-14 0)
(3.76768 3.16821e-14 0)
(3.76768 4.49211e-14 0)
(3.76768 1.02484e-13 0)
(3.76768 1.37367e-13 0)
(3.76768 9.53431e-14 0)
(3.76768 4.97713e-14 0)
(3.76768 3.37358e-14 0)
(3.76768 -1.12386e-14 0)
(3.76768 -5.63931e-14 0)
(3.76768 -4.37676e-14 0)
(3.76768 -2.83616e-14 0)
(3.76768 -6.31942e-14 0)
(3.76768 -5.61064e-14 0)
(3.76768 1.79464e-14 0)
(3.76768 9.31294e-14 0)
(3.76768 5.71899e-14 0)
(3.76768 3.91001e-14 0)
(3.76768 2.04869e-14 0)
(3.76768 -1.04351e-15 0)
(3.76768 1.10352e-14 0)
(3.76768 5.95203e-14 0)
(3.76768 8.24642e-14 0)
(3.76768 7.36527e-14 0)
(3.76768 7.91437e-14 0)
(3.76768 5.65231e-14 0)
(3.76768 8.58415e-14 0)
(3.76768 7.9357e-14 0)
(3.76768 1.45025e-14 0)
(3.76768 -1.35137e-13 0)
(3.76768 -1.59364e-13 0)
(3.76768 -1.44178e-13 0)
(3.76768 -2.00965e-13 0)
(3.76768 -1.87002e-13 0)
(3.76768 -1.07255e-13 0)
(3.76768 -7.46196e-14 0)
(3.76768 -2.42309e-14 0)
(3.76768 6.68382e-14 0)
(3.76768 5.75533e-14 0)
(3.76768 6.9432e-14 0)
(3.76768 1.11396e-13 0)
(3.76768 1.99504e-13 0)
(3.76768 1.86876e-13 0)
(3.76768 1.65052e-13 0)
(3.76768 1.45405e-13 0)
(3.76768 1.04265e-13 0)
(3.76768 1.39991e-14 0)
(3.76768 -1.02684e-15 0)
(3.76768 -9.69167e-15 0)
(3.76768 -1.55427e-14 0)
(3.76768 -4.00703e-14 0)
(3.76768 -5.84434e-15 0)
(3.76768 3.00519e-14 0)
(3.76768 1.69429e-14 0)
(3.76768 7.75134e-15 0)
(3.76768 1.06018e-14 0)
(3.76768 4.04737e-15 0)
(3.76768 -1.93233e-14 0)
(3.76768 -6.55813e-14 0)
(3.76768 -1.83165e-14 0)
(3.76768 3.28157e-14 0)
(3.76768 9.63733e-14 0)
(3.76768 7.17324e-14 0)
(3.76768 9.32828e-15 0)
(3.76768 -3.27557e-14 0)
(3.76768 4.51911e-14 0)
(3.76768 7.58231e-14 0)
(3.76768 3.33324e-14 0)
(3.76768 -5.11388e-14 0)
(3.76768 -1.34497e-13 0)
(3.76768 -2.57738e-13 0)
(3.76768 -3.24923e-13 0)
(3.76768 -3.69704e-13 0)
(3.76768 -3.61716e-13 0)
(3.76768 -3.32327e-13 0)
(3.76768 -2.87476e-13 0)
(3.76768 -8.89787e-14 0)
(3.76768 7.9347e-15 0)
(3.76768 4.8305e-14 0)
(3.76768 1.1396e-13 0)
(3.76768 1.1373e-13 0)
(3.76768 9.33295e-14 0)
(3.76768 2.1187e-14 0)
(3.76768 -2.96385e-15 0)
(3.76768 2.95951e-14 0)
(3.76768 3.64996e-14 0)
(3.76768 1.12899e-15 0)
(3.76768 1.40024e-16 0)
(3.76768 3.49527e-14 0)
(3.76768 5.84168e-14 0)
(3.76768 2.1137e-14 0)
(3.76768 -2.56378e-15 0)
(3.76768 4.0407e-15 0)
(3.76768 2.33507e-14 0)
(3.76768 -4.32475e-14 0)
(3.76768 -6.24875e-14 0)
(3.76768 -2.8795e-14 0)
(3.76768 -6.95387e-14 0)
(3.76768 -1.40224e-13 0)
(3.76768 -1.78944e-13 0)
(3.76768 -7.08522e-14 0)
(3.76768 3.05653e-14 0)
(3.76768 1.81131e-14 0)
(3.76768 9.53498e-16 0)
(3.76768 -2.41475e-14 0)
(3.76768 -2.02302e-14 0)
(3.76768 -1.38624e-14 0)
(3.76768 -2.24705e-15 0)
(3.76768 -3.69964e-14 0)
(3.76768 2.00801e-14 0)
(3.76768 7.86803e-15 0)
(3.76768 -5.49195e-14 0)
(3.76768 -8.4858e-14 0)
(3.76768 -1.06165e-13 0)
(3.76768 -1.16153e-13 0)
(3.76768 -1.09379e-13 0)
(3.76768 -4.58146e-14 0)
(3.76768 7.30459e-15 0)
(3.76768 7.57031e-14 0)
(3.76768 8.85386e-14 0)
(3.76768 7.19158e-14 0)
(3.76768 3.94368e-14 0)
(3.76768 1.70029e-14 0)
(3.76768 -6.66048e-14 0)
(3.76768 -5.98703e-14 0)
(3.76768 -2.58845e-14 0)
(3.76768 -1.01574e-14 0)
(3.76768 1.60394e-14 0)
(3.76768 3.74298e-14 0)
(3.76768 5.79333e-14 0)
(3.76768 7.06555e-14 0)
(3.76768 2.83316e-14 0)
(3.76768 1.5296e-14 0)
(3.76768 -7.84135e-15 0)
(3.76768 -1.26155e-14 0)
(3.76768 -7.28159e-14 0)
(3.76768 -4.10538e-14 0)
(3.76768 -9.03823e-15 0)
(3.76768 5.75099e-14 0)
(3.76768 3.10154e-14 0)
(3.76768 5.89102e-15 0)
(3.76768 -6.83451e-15 0)
(3.76768 2.92284e-14 0)
(3.76768 8.13741e-14 0)
(3.76768 6.73983e-14 0)
(3.76768 -6.09739e-14 0)
(3.76768 -1.19034e-13 0)
(3.76768 -9.2646e-14 0)
(3.76768 7.67466e-15 0)
(3.76768 5.55796e-14 0)
(3.76768 1.09356e-13 0)
(3.76768 1.52353e-13 0)
(3.76768 2.29373e-13 0)
(3.76768 2.55344e-13 0)
(3.76768 1.7536e-13 0)
(3.76768 1.13743e-13 0)
(3.76768 1.04681e-13 0)
(3.76768 2.16637e-13 0)
(3.76768 2.69633e-13 0)
(3.76768 2.41895e-13 0)
(3.76768 2.04522e-13 0)
(3.76768 1.97938e-13 0)
(3.76768 1.27259e-13 0)
(3.76768 3.44393e-14 0)
(3.76768 -4.8475e-14 0)
(3.76768 -1.24555e-14 0)
(3.76768 5.26424e-14 0)
(3.76768 -1.20554e-14 0)
(3.76768 -2.14204e-14 0)
(3.76768 -2.7178e-14 0)
(3.76768 -1.81898e-14 0)
(3.76768 -7.85136e-15 0)
(3.76768 3.07053e-15 0)
(3.76768 -2.25706e-15 0)
(3.76768 1.53627e-14 0)
(3.76768 -3.17188e-14 0)
(3.76768 -2.63345e-14 0)
(3.76768 5.46094e-14 0)
(3.76768 1.85349e-13 0)
(3.76768 1.87692e-13 0)
(3.76768 6.53913e-14 0)
(3.76768 1.80598e-14 0)
(3.76768 1.7313e-14 0)
(3.76768 4.51011e-14 0)
(3.76768 6.43011e-14 0)
(3.76768 1.89399e-14 0)
(3.76768 1.05485e-14 0)
(3.76768 -1.43625e-14 0)
(3.76768 -4.80083e-16 0)
(3.76768 -5.55596e-14 0)
(3.76768 -5.01187e-14 0)
(3.76768 1.96501e-14 0)
(3.76768 1.06335e-13 0)
(3.76768 1.69053e-13 0)
(3.76768 1.64558e-13 0)
(3.76768 1.18687e-13 0)
(3.76768 1.05198e-13 0)
(3.76768 1.43518e-13 0)
(3.76768 1.74317e-13 0)
(3.76768 6.7305e-14 0)
(3.76768 4.62913e-14 0)
(3.76768 6.99287e-14 0)
(3.76768 1.27782e-13 0)
(3.76768 9.98973e-14 0)
(3.76768 6.22908e-14 0)
(3.76768 4.07237e-14 0)
(3.76768 6.03133e-14 0)
(3.76768 -5.99103e-15 0)
(3.76768 -2.66979e-14 0)
(3.76768 -8.95155e-14 0)
(3.76768 -1.25408e-13 0)
(3.76768 -1.11236e-13 0)
(3.76768 -1.09516e-13 0)
(3.76768 -6.39544e-14 0)
(3.76768 -3.77198e-14 0)
(3.76768 4.25173e-14 0)
(3.76768 6.42611e-14 0)
(3.76768 7.40561e-14 0)
(3.76768 3.66797e-14 0)
(3.76768 4.79116e-14 0)
(3.76768 1.95967e-14 0)
(3.76768 4.17872e-14 0)
(3.76768 1.65362e-15 0)
(3.76768 -2.63212e-14 0)
(3.76768 5.96103e-14 0)
(3.76768 4.30374e-14 0)
(3.76768 -4.33608e-14 0)
(3.76768 -8.2911e-14 0)
(3.76768 -5.43461e-14 0)
(3.76768 -1.20688e-15 0)
(3.76768 7.50796e-15 0)
(3.76768 -6.42111e-15 0)
(3.76768 -2.14237e-14 0)
(3.76768 4.10738e-15 0)
(3.76768 5.48395e-14 0)
(3.76768 9.82536e-14 0)
(3.76768 8.40478e-14 0)
(3.76768 9.58799e-14 0)
(3.76768 1.06505e-13 0)
(3.76768 7.92337e-14 0)
(3.76768 4.20206e-14 0)
(3.76768 6.32176e-14 0)
(3.76768 8.53114e-14 0)
(3.76768 4.09437e-14 0)
(3.76768 -1.60694e-15 0)
(3.76768 -1.77497e-14 0)
(3.76768 -3.34322e-14 0)
(3.76768 -3.40059e-16 0)
(3.76768 -2.80682e-14 0)
(3.76768 -1.70063e-14 0)
(3.76768 -1.06852e-14 0)
(3.76768 -1.39691e-14 0)
(3.76768 -2.54144e-14 0)
(3.76768 -5.29825e-14 0)
(3.76768 -4.46744e-14 0)
(3.76768 5.54096e-14 0)
(3.76768 6.27275e-14 0)
(3.76768 -1.03818e-14 0)
(3.76768 -1.5496e-14 0)
(3.76768 -9.52498e-15 0)
(3.76768 2.43742e-14 0)
(3.76768 -9.02156e-15 0)
(3.76768 2.15704e-14 0)
(3.76768 4.17105e-14 0)
(3.76768 -2.12537e-14 0)
(3.76768 -4.31875e-14 0)
(3.76768 -9.93805e-14 0)
(3.76768 -7.79935e-14 0)
(3.76768 -4.57212e-14 0)
(3.76768 -6.00437e-14 0)
(3.76768 -5.92936e-14 0)
(3.76768 -6.57247e-14 0)
(3.76768 -5.47961e-14 0)
(3.76768 -4.68581e-14 0)
(3.76768 -2.48276e-14 0)
(3.76768 -3.02552e-14 0)
(3.76768 1.31956e-14 0)
(3.76768 4.48444e-14 0)
(3.76768 6.55513e-14 0)
(3.76768 8.74984e-14 0)
(3.76768 3.58529e-14 0)
(3.76768 3.71764e-14 0)
(3.76768 5.60563e-14 0)
(3.76768 2.89983e-14 0)
(3.76768 -9.4483e-15 0)
(3.76768 -2.51043e-15 0)
(3.76768 3.04921e-14 0)
(3.76768 -2.43709e-14 0)
(3.76768 1.10686e-15 0)
(3.76768 5.4206e-14 0)
(3.76768 3.60796e-14 0)
(3.76768 -1.87366e-14 0)
(3.76768 -4.31008e-14 0)
(3.76768 -2.92384e-14 0)
(3.76768 -1.77997e-14 0)
(3.76768 -2.26706e-15 0)
(3.76768 1.06252e-14 0)
(3.76768 -1.51626e-14 0)
(3.76768 -5.39126e-14 0)
(3.76768 -5.10988e-14 0)
(3.76768 -8.79952e-14 0)
(3.76768 -1.22518e-13 0)
(3.76768 -9.95839e-14 0)
(3.76768 -6.3571e-14 0)
(3.76768 -4.00603e-14 0)
(3.76768 -2.87516e-14 0)
(3.76768 7.60131e-15 0)
(3.76768 5.96336e-14 0)
(3.76768 5.64364e-14 0)
(3.76768 5.12122e-14 0)
(3.76768 -2.06002e-14 0)
(3.76768 -6.23641e-14 0)
(3.76768 -6.3511e-14 0)
(3.76768 -8.2781e-14 0)
(3.76768 -8.45046e-14 0)
(3.76768 -6.01237e-14 0)
(3.76768 -8.54814e-15 0)
(3.76768 -3.21222e-14 0)
(3.76768 -1.87932e-14 0)
(3.76768 4.86751e-15 0)
(3.76768 -2.61278e-14 0)
(3.76768 -7.77301e-14 0)
(3.76768 -1.77697e-15 0)
(3.76768 5.09288e-14 0)
(3.76768 7.53864e-14 0)
(3.76768 8.32677e-14 0)
(3.76768 1.85016e-15 0)
(3.76768 -3.39392e-15 0)
(3.76768 6.33443e-17 0)
(3.76768 -2.11837e-14 0)
(3.76768 -2.13904e-14 0)
(3.76768 -7.99005e-14 0)
(3.76768 -9.46997e-14 0)
(3.76768 -9.01589e-14 0)
(3.76768 -1.12199e-13 0)
(3.76768 -1.63775e-13 0)
(3.76768 -1.39137e-13 0)
(3.76768 -1.5676e-13 0)
(3.76768 -1.72343e-13 0)
(3.76768 -1.76297e-13 0)
(3.76768 -1.74263e-13 0)
(3.76768 -1.16577e-13 0)
(3.76768 -1.1631e-13 0)
(3.76768 -1.69096e-13 0)
(3.76768 -1.02744e-13 0)
(3.76768 -7.44262e-14 0)
(3.76768 -5.36759e-15 0)
(3.76768 1.00491e-13 0)
(3.76768 1.49212e-13 0)
(3.76768 1.85775e-13 0)
(3.76768 1.03838e-13 0)
(3.76768 3.28857e-14 0)
(3.76768 -3.55895e-14 0)
(3.76768 -5.55263e-14 0)
(3.76768 -3.17922e-14 0)
(3.76768 3.78632e-14 0)
(3.76768 7.1379e-14 0)
(3.76768 1.78598e-14 0)
(3.76768 1.80464e-14 0)
(3.76768 1.75564e-14 0)
(3.76768 3.97769e-14 0)
(3.76768 3.40059e-14 0)
(3.76768 3.96002e-14 0)
(3.76768 1.13246e-13 0)
(3.76768 8.32177e-14 0)
(3.76768 6.58947e-14 0)
(3.76768 -6.03776e-14 0)
(3.76768 7.13123e-15 0)
(3.76768 -8.95488e-15 0)
(3.76768 -1.68362e-15 0)
(3.76768 5.36859e-14 0)
(3.76768 6.98187e-14 0)
(3.76768 9.31161e-14 0)
(3.76768 5.29025e-14 0)
(3.76768 -2.94251e-14 0)
(3.76768 -1.27049e-13 0)
(3.76768 -1.69593e-13 0)
(3.76768 -1.41821e-13 0)
(3.76768 -1.12113e-13 0)
(3.76768 -1.12216e-13 0)
(3.76768 -6.83151e-14 0)
(3.76768 -3.64196e-14 0)
(3.76768 -8.82819e-14 0)
(3.76768 -8.34944e-14 0)
(3.76768 -4.08737e-14 0)
(3.76768 1.19187e-14 0)
(3.76768 5.70365e-14 0)
(3.76768 -2.17504e-14 0)
(3.76768 -1.03718e-14 0)
(3.76768 7.03121e-14 0)
(3.76768 1.35807e-13 0)
(3.76768 7.35494e-14 0)
(3.76768 7.40061e-14 0)
(3.76768 8.44479e-15 0)
(3.76768 -2.9215e-14 0)
(3.76768 2.89317e-14 0)
(3.76768 -2.59778e-14 0)
(3.76768 -3.36158e-14 0)
(3.76768 -3.63263e-14 0)
(3.76768 7.20791e-15 0)
(3.76768 1.28229e-13 0)
(3.76768 1.72466e-13 0)
(3.76768 8.48213e-14 0)
(3.76768 7.13457e-14 0)
(3.76768 2.78481e-14 0)
(3.76768 5.0282e-14 0)
(3.76768 7.90064e-14 0)
(3.76768 7.64132e-15 0)
(3.76768 4.25573e-14 0)
(3.76768 5.52495e-14 0)
(3.76768 9.54231e-14 0)
(3.76768 9.81836e-14 0)
(3.76768 9.27494e-14 0)
(3.76768 6.83118e-14 0)
(3.76768 4.32475e-14 0)
(3.76768 -2.41342e-14 0)
(3.76768 -6.38144e-14 0)
(3.76768 -5.02087e-14 0)
(3.76768 -5.49795e-14 0)
(3.76768 -4.50711e-14 0)
(3.76768 -3.96935e-14 0)
(3.76768 -1.05258e-13 0)
(3.76768 -1.7156e-13 0)
(3.76768 -1.13396e-13 0)
(3.76768 -2.1317e-14 0)
(3.76768 4.30908e-14 0)
(3.76768 5.21423e-15 0)
(3.76768 -5.0042e-14 0)
(3.76768 -3.90334e-14 0)
(3.76768 -4.0637e-14 0)
(3.76768 -4.31408e-15 0)
(3.76768 1.15107e-13 0)
(3.76768 1.22718e-13 0)
(3.76768 1.09229e-13 0)
(3.76768 1.38924e-13 0)
(3.76768 1.69566e-13 0)
(3.76768 1.70326e-13 0)
(3.76768 1.37847e-13 0)
(3.76768 7.47162e-14 0)
(3.76768 -2.15237e-14 0)
(3.76768 -1.41224e-14 0)
(3.76768 5.73132e-14 0)
(3.76768 7.61898e-14 0)
(3.76768 6.51946e-14 0)
(3.76768 1.93233e-14 0)
(3.76768 9.74502e-15 0)
(3.76768 1.53497e-13 0)
(3.76768 3.43393e-15 0)
(3.76768 2.41108e-14 0)
(3.76768 2.22205e-14 0)
(3.76768 -1.36824e-14 0)
(3.76768 -2.14304e-14 0)
(3.76768 -6.16273e-14 0)
(3.76768 -9.13091e-14 0)
(3.76768 -1.27432e-13 0)
(3.76768 -1.07082e-13 0)
(3.76768 -1.02921e-13 0)
(3.76768 -7.04455e-14 0)
(3.76768 -9.52998e-14 0)
(3.76768 -4.28474e-14 0)
(3.76768 -6.59381e-14 0)
(3.76768 -5.20423e-14 0)
(3.76768 -6.85885e-14 0)
(3.76768 -1.02658e-13 0)
(3.76768 -1.5467e-13 0)
(3.76768 -1.33136e-13 0)
(3.76768 -1.09106e-13 0)
(3.76768 -4.95919e-14 0)
(3.76768 3.01285e-14 0)
(3.76768 -2.44376e-15 0)
(3.76768 -5.54996e-14 0)
(3.76768 -6.96454e-15 0)
(3.76768 4.04403e-15 0)
(3.76768 6.06738e-14 0)
(3.76768 1.1785e-13 0)
(3.76768 1.08565e-13 0)
(3.76768 2.39641e-14 0)
(3.76768 1.25655e-14 0)
(3.76768 4.4141e-15 0)
(3.76768 -4.81983e-14 0)
(3.76768 -5.43761e-15 0)
(3.76768 -2.93384e-15 0)
(3.76768 3.60396e-15 0)
(3.76768 -1.03051e-14 0)
(3.76768 -3.16555e-14 0)
(3.76768 -1.923e-14 0)
(3.76768 3.09848e-14 0)
(3.76768 -4.17072e-15 0)
(3.76768 -2.85683e-14 0)
(3.76768 -2.21605e-14 0)
(3.76768 -1.01518e-14 0)
(3.76768 1.29189e-14 0)
(3.76768 -6.04338e-14 0)
(3.76768 -1.10412e-13 0)
(3.76768 -9.47764e-14 0)
(3.76768 -8.95921e-14 0)
(3.76768 -5.65798e-14 0)
(3.76768 -1.68662e-14 0)
(3.76768 3.09053e-15 0)
(3.76768 2.96518e-14 0)
(3.76768 7.20224e-14 0)
(3.76768 1.02908e-13 0)
(3.76768 1.07519e-13 0)
(3.76768 3.06453e-14 0)
(3.76768 -3.08387e-15 0)
(3.76768 -9.78502e-15 0)
(3.76768 -4.64647e-14 0)
(3.76768 -1.57527e-14 0)
(3.76768 7.89803e-15 0)
(3.76768 -5.85434e-15 0)
(3.76768 -3.846e-14 0)
(3.76768 -1.71396e-14 0)
(3.76768 -2.17971e-14 0)
(3.76768 5.26758e-16 0)
(3.76768 -1.09999e-13 0)
(3.76768 -1.7597e-13 0)
(3.76768 -1.88139e-13 0)
(3.76768 -1.68662e-13 0)
(3.76768 -3.6633e-14 0)
(3.76768 5.17823e-14 0)
(3.76768 9.05556e-14 0)
(3.76768 2.16404e-14 0)
(3.76768 -1.48726e-14 0)
(3.76768 -5.20723e-14 0)
(3.76768 -4.78749e-15 0)
(3.76768 3.70131e-14 0)
(3.76768 7.58549e-14 0)
(3.76768 -1.09386e-14 0)
(3.76768 -2.23872e-14 0)
(3.76768 -4.8505e-14 0)
(3.76768 -5.25891e-14 0)
(3.76768 1.99368e-15 0)
(3.76768 1.21054e-14 0)
(3.76768 3.15955e-14 0)
(3.76768 5.79667e-14 0)
(3.76768 3.98502e-14 0)
(3.76768 7.73e-14 0)
(3.76768 2.19971e-14 0)
(3.76768 2.12837e-14 0)
(3.76768 6.74316e-14 0)
(3.76768 6.1564e-14 0)
(3.76768 -3.47027e-14 0)
(3.76768 -3.36558e-14 0)
(3.76768 -7.10156e-14 0)
(3.76768 -6.94653e-14 0)
(3.76768 -1.33023e-15 0)
(3.76768 2.52444e-14 0)
(3.76768 -1.32756e-14 0)
(3.76768 -4.17739e-15 0)
(3.76768 3.44926e-14 0)
(3.76768 -7.56131e-15 0)
(3.76768 -3.65797e-14 0)
(3.76768 -4.27874e-14 0)
(3.76768 -6.73883e-14 0)
(3.76768 -6.18107e-14 0)
(3.76768 -6.53713e-14 0)
(3.76768 -1.65929e-14 0)
(3.76768 -9.38829e-15 0)
(3.76768 -5.98003e-14 0)
(3.76768 -4.83383e-14 0)
(3.76768 -4.69848e-14 0)
(3.76768 1.01751e-14 0)
(3.76768 2.85416e-14 0)
(3.76768 3.40926e-14 0)
(3.76768 1.02561e-13 0)
(3.76768 9.668e-14 0)
(3.76768 2.85573e-14 0)
(3.76768 -2.75414e-14 0)
(3.76768 -2.84282e-14 0)
(3.76768 -1.1522e-14 0)
(3.76768 -4.55779e-14 0)
(3.76768 -4.69981e-14 0)
(3.76768 -9.4683e-16 0)
(3.76768 6.30442e-14 0)
(3.76768 6.70682e-14 0)
(3.76768 6.12739e-14 0)
(3.76768 9.82003e-14 0)
(3.76768 6.50012e-14 0)
(3.76768 -3.91734e-15 0)
(3.76768 -4.48044e-14 0)
(3.76768 -9.54265e-14 0)
(3.76768 -1.17774e-13 0)
(3.76768 -1.67056e-13 0)
(3.76768 -1.05735e-13 0)
(3.76768 -7.9087e-14 0)
(3.76768 -1.03458e-13 0)
(3.76768 5.66098e-15 0)
(3.76768 4.37642e-14 0)
(3.76768 9.83236e-14 0)
(3.76768 1.24455e-13 0)
(3.76768 1.27189e-13 0)
(3.76768 -1.59461e-14 0)
(3.76768 -3.07053e-15 0)
(3.76768 -3.01219e-14 0)
(3.76768 -8.73518e-14 0)
(3.76768 -1.10012e-13 0)
(3.76768 -1.7416e-13 0)
(3.76768 -1.39274e-13 0)
(3.76768 -1.03428e-13 0)
(3.76768 -5.10088e-14 0)
(3.76768 8.08373e-14 0)
(3.76768 9.28127e-14 0)
(3.76768 9.96105e-14 0)
(3.76768 8.24609e-14 0)
(3.76768 1.05161e-13 0)
(3.76768 9.88137e-14 0)
(3.76768 -2.26121e-14 0)
(3.76768 5.00753e-15 0)
(3.76768 3.61829e-14 0)
(3.76768 6.76917e-14 0)
(3.76768 7.53597e-14 0)
(3.76768 1.64728e-14 0)
(3.76768 -3.6873e-15 0)
(3.76768 4.69414e-15 0)
(3.76768 5.91602e-14 0)
(3.76768 1.10896e-13 0)
(3.76768 1.27212e-13 0)
(3.76768 1.50993e-13 0)
(3.76768 1.50736e-13 0)
(3.76768 7.34727e-14 0)
(3.76768 -5.37226e-14 0)
(3.76768 -6.08405e-14 0)
(3.76768 -3.0602e-14 0)
(3.76768 3.73331e-14 0)
(3.76768 5.86035e-14 0)
(3.76768 5.87868e-14 0)
(3.76768 -4.10571e-14 0)
(3.76768 2.99852e-14 0)
(3.76768 9.80836e-15 0)
(3.76768 3.82699e-14 0)
(3.76768 7.73267e-14 0)
(3.76768 -2.19938e-14 0)
(3.76768 -4.66381e-14 0)
(3.76768 5.14289e-14 0)
(3.76768 5.23724e-14 0)
(3.76768 3.87467e-14 0)
(3.76768 2.16271e-14 0)
(3.76768 -8.89954e-14 0)
(3.76768 -6.25375e-14 0)
(3.76768 3.70097e-14 0)
(3.76768 1.01101e-13 0)
(3.76768 1.58237e-13 0)
(3.76768 1.39204e-13 0)
(3.76768 9.40496e-14 0)
(3.76768 5.49562e-14 0)
(3.76768 2.05202e-14 0)
(3.76768 2.50545e-14 0)
(3.76768 1.38324e-14 0)
(3.76768 2.95684e-14 0)
(3.76768 -1.73363e-16 0)
(3.76768 2.35641e-14 0)
(3.76768 1.47425e-14 0)
(3.76768 5.63564e-14 0)
(3.76768 3.21889e-14 0)
(3.76768 6.56613e-14 0)
(3.76768 9.05023e-14 0)
(3.76768 6.93286e-14 0)
(3.76768 7.4993e-14 0)
(3.76768 1.05625e-13 0)
(3.76768 7.91437e-14 0)
(3.76768 -2.20271e-14 0)
(3.76768 -7.83169e-14 0)
(3.76768 2.53444e-14 0)
(3.76768 1.07912e-13 0)
(3.76768 9.43863e-14 0)
(3.76768 5.5883e-14 0)
(3.76768 5.9577e-14 0)
(3.76768 3.42793e-14 0)
(3.76768 1.93467e-14 0)
(3.76768 7.90136e-16 0)
(3.76768 -7.83335e-14 0)
(3.76768 -1.06255e-13 0)
(3.76768 -1.43558e-14 0)
(3.76768 6.27008e-14 0)
(3.76768 7.87069e-14 0)
(3.76768 2.45276e-14 0)
(3.76768 7.69733e-14 0)
(3.76768 1.07685e-13 0)
(3.76768 1.41991e-14 0)
(3.76768 -4.12771e-14 0)
(3.76768 -1.02894e-13 0)
(3.76768 -4.12071e-14 0)
(3.76768 -1.57994e-14 0)
(3.76768 -1.47292e-14 0)
(3.76768 -7.08189e-14 0)
(3.76768 -8.51747e-14 0)
(3.76768 -3.21598e-15 0)
(3.76768 -1.86699e-16 0)
(3.76768 -5.65731e-14 0)
(3.76768 -8.4828e-14 0)
(3.76768 -3.86433e-14 0)
(3.76768 2.84349e-14 0)
(3.76768 4.23073e-14 0)
(3.76768 6.25941e-14 0)
(3.76768 4.64847e-14 0)
(3.76768 3.79466e-14 0)
(3.76768 3.83633e-14 0)
(3.76768 -1.98768e-14 0)
(3.76768 -9.64167e-15 0)
(3.76768 1.18687e-15 0)
(3.76768 -2.72147e-14 0)
(3.76768 -4.41843e-14 0)
(3.76768 8.18375e-14 0)
(3.76768 9.88437e-14 0)
(3.76768 1.47986e-13 0)
(3.76768 5.74733e-14 0)
(3.76768 -6.67782e-15 0)
(3.76768 -4.79083e-15 0)
(3.76768 3.53761e-14 0)
(3.76768 -3.67597e-14 0)
(3.76768 -1.03395e-13 0)
(3.76768 -9.11691e-14 0)
(3.76768 -1.59428e-14 0)
(3.76768 -2.78015e-14 0)
(3.76768 -3.23723e-14 0)
(3.76768 -2.75081e-14 0)
(3.76768 -2.98018e-14 0)
(3.76768 6.5738e-14 0)
(3.76768 8.73818e-14 0)
(3.76768 4.13305e-14 0)
(3.76768 2.73581e-14 0)
(3.76768 1.43225e-14 0)
(3.76768 -1.73363e-14 0)
(3.76768 -4.0687e-14 0)
(3.76768 -3.42192e-14 0)
(3.76768 -5.4126e-14 0)
(3.76768 -5.56956e-14 0)
(3.76768 1.30222e-14 0)
(3.76768 1.18487e-14 0)
(3.76768 3.04386e-15 0)
(3.76768 -3.93735e-14 0)
(3.76768 2.1437e-15 0)
(3.76768 -2.57378e-15 0)
(3.76768 3.33758e-14 0)
(3.76768 6.63148e-14 0)
(3.76768 7.10989e-14 0)
(3.76768 4.33275e-14 0)
(3.76768 6.38177e-14 0)
(3.76768 8.3171e-14 0)
(3.76768 8.18375e-14 0)
(3.76768 6.52613e-14 0)
(3.76768 7.62332e-14 0)
(3.76768 7.80201e-14 0)
(3.76768 5.15022e-14 0)
(3.76768 1.07159e-13 0)
(3.76768 2.95351e-14 0)
(3.76768 -5.76866e-14 0)
(3.76768 -5.29525e-14 0)
(3.76768 -4.74482e-14 0)
(3.76768 -9.91838e-14 0)
(3.76768 -1.00734e-13 0)
(3.76768 -8.42779e-14 0)
(3.76768 -1.09059e-13 0)
(3.76768 -9.26827e-14 0)
(3.76768 -6.47112e-14 0)
(3.76768 -7.07456e-15 0)
(3.76768 5.78433e-15 0)
(3.76768 -1.7543e-14 0)
(3.76768 -1.26455e-14 0)
(3.76768 -6.28075e-14 0)
(3.76768 -9.4353e-14 0)
(3.76768 -8.60882e-14 0)
(3.76768 -1.01094e-13 0)
(3.76768 -1.27502e-13 0)
(3.76768 -9.36195e-14 0)
(3.76768 -9.13024e-14 0)
(3.76768 -1.21859e-13 0)
(3.76768 1.7293e-14 0)
(3.76768 4.37809e-14 0)
(3.76768 2.35174e-14 0)
(3.76768 -2.98452e-14 0)
(3.76768 -2.77915e-14 0)
(3.76768 -6.02737e-14 0)
(3.76768 -3.80666e-14 0)
(3.76768 -1.82965e-14 0)
(3.76768 -4.67247e-14 0)
(3.76768 -1.34993e-13 0)
(3.76768 -1.30959e-13 0)
(3.76768 -7.79835e-14 0)
(3.76768 -1.55394e-14 0)
(3.76768 6.00304e-14 0)
(3.76768 5.47094e-14 0)
(3.76768 3.72231e-14 0)
(3.76768 5.84868e-14 0)
(3.76768 8.08806e-15 0)
(3.76768 -1.98034e-15 0)
(3.76768 -2.68746e-14 0)
(3.76768 -8.51314e-14 0)
(3.76768 -1.08699e-13 0)
(3.76768 -8.83853e-14 0)
(3.76768 -8.3101e-14 0)
(3.76768 -6.65548e-14 0)
(3.76768 -1.76977e-13 0)
(3.76768 -1.91023e-13 0)
(3.76768 -1.51379e-13 0)
(3.76768 -1.35033e-13 0)
(3.76768 -1.20908e-13 0)
(3.76768 -1.48086e-13 0)
(3.76768 -8.54381e-14 0)
(3.76768 -7.61732e-14 0)
(3.76768 -9.65567e-14 0)