/*--------------------------------*- C++ -*----------------------------------*\
| =========                 |                                                 |
| \\      /  F ield         | OpenFOAM: The Open Source CFD Toolbox           |
|  \\    /   O peration     | Version:  2206                                  |
|   \\  /    A nd           | Website:  www.openfoam.com                      |
|    \\/     M anipulation  |                                                 |
\*---------------------------------------------------------------------------*/
FoamFile
{
    version     2.0;
    format      ascii;
    arch        "LSB;label=32;scalar=64";
    class       volScalarField;
    location    "0.06";
    object      p;
}
// * * * * * * * * * * * * * * * * * * * * * * * * * * * * * * * * * * * * * //

dimensions      [1 -1 -2 0 0 0 0];

internalField   nonuniform List<scalar> 
75
(
1
1
1
1
1
1
1
1
1
1
1
1
1
1
1
1
1
1
1
1
1
1
1
1
1
1.2739
1.73696
2.34328
3.08306
3.9526
4.84753
5.65137
6.17237
6.61194
6.73954
0.999051
1.00459
1.03669
1.12946
1.32715
1.69598
2.21058
2.82105
3.33022
4.04645
0.999976
0.999974
0.999609
1.00086
1.0004
1.01009
1.06517
1.25337
1.57565
2.61416
1
0.999998
0.999949
0.99995
0.999946
0.999994
0.999442
1.0042
1.01246
1.22416
1
1
1
0.999993
0.99998
0.999983
0.999892
0.999942
0.999835
1.00517
)
;

boundaryField
{
    inlet
    {
        type            fixedValue;
        value           uniform 1;
    }
    outlet
    {
        type            zeroGradient;
    }
    bottom
    {
        type            symmetryPlane;
    }
    top
    {
        type            symmetryPlane;
    }
    obstacle
    {
        type            zeroGradient;
    }
    defaultFaces
    {
        type            empty;
    }
}


// ************************************************************************* //
