/*--------------------------------*- C++ -*----------------------------------*\
| =========                 |                                                 |
| \\      /  F ield         | OpenFOAM: The Open Source CFD Toolbox           |
|  \\    /   O peration     | Version:  2206                                  |
|   \\  /    A nd           | Website:  www.openfoam.com                      |
|    \\/     M anipulation  |                                                 |
\*---------------------------------------------------------------------------*/
FoamFile
{
    version     2.0;
    format      ascii;
    arch        "LSB;label=32;scalar=64";
    class       volVectorField;
    location    "0.14";
    object      U;
}
// * * * * * * * * * * * * * * * * * * * * * * * * * * * * * * * * * * * * * //

dimensions      [0 1 -1 0 0 0 0];

internalField   nonuniform List<vector> 
4800
(
(4.81818 1.44692e-15 0)
(4.81818 3.06386e-14 0)
(4.81818 6.43978e-14 0)
(4.81818 6.19007e-14 0)
(4.81818 5.24324e-14 0)
(4.81818 3.99102e-14 0)
(4.81818 2.86383e-14 0)
(4.81818 4.17139e-14 0)
(4.81818 3.75598e-14 0)
(4.81818 1.26989e-14 0)
(4.81818 2.18671e-14 0)
(4.81818 3.85467e-14 0)
(4.81818 1.25022e-14 0)
(4.81818 2.03135e-14 0)
(4.81818 1.23645e-13 0)
(4.81818 1.40768e-13 0)
(4.81818 1.28392e-13 0)
(4.81818 1.18944e-13 0)
(4.81818 9.72268e-14 0)
(4.81818 9.77802e-14 0)
(4.81818 1.01277e-13 0)
(4.81818 4.21439e-14 0)
(4.81818 -1.30656e-14 0)
(4.81818 -7.86569e-14 0)
(4.81818 -9.13291e-14 0)
(4.81818 -7.58898e-14 0)
(4.81818 -8.64183e-14 0)
(4.81818 -7.12623e-14 0)
(4.81818 -4.8365e-14 0)
(4.81818 -3.02319e-14 0)
(4.81818 4.30241e-14 0)
(4.81818 9.51798e-14 0)
(4.81818 1.09919e-13 0)
(4.81818 1.15527e-13 0)
(4.81818 1.16357e-13 0)
(4.81818 5.26591e-14 0)
(4.81818 -5.16389e-14 0)
(4.81818 -5.42594e-14 0)
(4.81818 -5.47695e-14 0)
(4.81818 -6.07538e-14 0)
(4.81818 7.82468e-15 0)
(4.81818 3.32157e-14 0)
(4.81818 2.77181e-14 0)
(4.81818 2.39708e-14 0)
(4.81818 2.05936e-14 0)
(4.81818 5.817e-14 0)
(4.81818 6.38644e-14 0)
(4.81818 2.66813e-14 0)
(4.81818 -1.16753e-14 0)
(4.81818 -2.66846e-14 0)
(4.81818 -1.28889e-14 0)
(4.81818 -2.77581e-14 0)
(4.81818 -4.13105e-14 0)
(4.81818 -4.10738e-14 0)
(4.81818 -1.76164e-14 0)
(4.81818 8.35478e-15 0)
(4.81818 1.09216e-13 0)
(4.81818 1.76367e-13 0)
(4.81818 1.9505e-13 0)
(4.81818 1.49853e-13 0)
(4.81818 9.11891e-14 0)
(4.81818 4.73782e-14 0)
(4.81818 -2.57378e-15 0)
(4.81818 -6.32109e-14 0)
(4.81818 -1.10752e-13 0)
(4.81818 -1.03211e-13 0)
(4.81818 -9.58832e-14 0)
(4.81818 -3.58362e-14 0)
(4.81818 1.19654e-14 0)
(4.81818 8.93788e-14 0)
(4.81818 1.14406e-13 0)
(4.81818 1.05438e-13 0)
(4.81818 8.4958e-14 0)
(4.81818 6.64881e-14 0)
(4.81818 7.98171e-14 0)
(4.81818 -3.47527e-14 0)
(4.81818 -1.67002e-13 0)
(4.81818 -2.50307e-13 0)
(4.81818 -2.71023e-13 0)
(4.81818 -2.97287e-13 0)
(4.81818 3.2899e-14 0)
(4.81818 3.0912e-14 0)
(4.81818 -3.02386e-15 0)
(4.81818 -1.20888e-14 0)
(4.81818 -2.81715e-15 0)
(4.81818 1.93467e-14 0)
(4.81818 3.2539e-14 0)
(4.81818 -1.39324e-14 0)
(4.81818 -3.0772e-14 0)
(4.81818 3.55095e-14 0)
(4.81818 6.50179e-14 0)
(4.81818 9.65967e-14 0)
(4.81818 1.05662e-13 0)
(4.81818 8.43879e-14 0)
(4.81818 4.46377e-14 0)
(4.81818 -2.83516e-14 0)
(4.81818 -1.23021e-14 0)
(4.81818 1.59127e-14 0)
(4.81818 2.18371e-15 0)
(4.81818 -9.88771e-14 0)
(4.81818 -1.40981e-13 0)
(4.81818 -1.15153e-13 0)
(4.81818 -1.14533e-13 0)
(4.81818 -9.8207e-14 0)
(4.81818 4.17739e-15 0)
(4.81818 3.69264e-14 0)
(4.81818 7.27559e-14 0)
(4.81818 6.95587e-14 0)
(4.81818 6.43078e-14 0)
(4.81818 7.11356e-14 0)
(4.81818 1.27965e-13 0)
(4.81818 1.31753e-13 0)
(4.81818 1.09349e-13 0)
(4.81818 2.15634e-13 0)
(4.81818 2.71003e-13 0)
(4.81818 2.724e-13 0)
(4.81818 1.42108e-13 0)
(4.81818 1.64095e-14 0)
(4.81818 -7.75167e-14 0)
(4.81818 -7.66195e-14 0)
(4.81818 -7.91803e-15 0)
(4.81818 -4.74749e-15 0)
(4.81818 -6.85785e-15 0)
(4.81818 -4.82183e-14 0)
(4.81818 -4.71148e-14 0)
(4.81818 -2.37174e-14 0)
(4.81818 1.65329e-14 0)
(4.81818 2.29673e-14 0)
(4.81818 3.18422e-14 0)
(4.81818 3.96368e-14 0)
(4.81818 5.20957e-14 0)
(4.81818 1.01684e-13 0)
(4.81818 8.78052e-14 0)
(4.81818 1.02428e-13 0)
(4.81818 1.04325e-13 0)
(4.81818 9.95272e-14 0)
(4.81818 9.18959e-14 0)
(4.81818 1.01287e-13 0)
(4.81818 7.97571e-14 0)
(4.81818 2.3104e-14 0)
(4.81818 -7.79135e-15 0)
(4.81818 -4.0417e-14 0)
(4.81818 -6.05104e-14 0)
(4.81818 -6.99454e-14 0)
(4.81818 -2.89283e-14 0)
(4.81818 -4.58279e-14 0)
(4.81818 -5.51629e-14 0)
(4.81818 -7.90737e-14 0)
(4.81818 -5.23757e-14 0)
(4.81818 -2.71047e-15 0)
(4.81818 3.57628e-14 0)
(4.81818 2.88183e-14 0)
(4.81818 8.34444e-14 0)
(4.81818 2.09723e-13 0)
(4.81818 3.01509e-13 0)
(4.81818 2.50903e-13 0)
(4.81818 1.70076e-13 0)
(4.81818 1.24411e-13 0)
(4.81818 7.80035e-14 0)
(4.81818 1.01743e-13 0)
(4.81818 -1.90133e-14 0)
(4.81818 -2.21572e-14 0)
(4.81818 -3.73031e-14 0)
(4.81818 -4.12071e-14 0)
(4.81818 -3.94735e-14 0)
(4.81818 -6.04671e-14 0)
(4.81818 -7.92904e-14 0)
(4.81818 -5.79733e-14 0)
(4.81818 -1.54193e-14 0)
(4.81818 -1.57827e-14 0)
(4.81818 -3.08753e-14 0)
(4.81818 2.24739e-14 0)
(4.81818 5.11822e-14 0)
(4.81818 9.11891e-14 0)
(4.81818 8.99022e-14 0)
(4.81818 8.61415e-14 0)
(4.81818 6.02304e-14 0)
(4.81818 7.64632e-14 0)
(4.81818 1.44525e-13 0)
(4.81818 1.49332e-13 0)
(4.81818 1.78244e-13 0)
(4.81818 1.26815e-13 0)
(4.81818 1.11666e-13 0)
(4.81818 1.07445e-13 0)
(4.81818 7.94337e-14 0)
(4.81818 -2.55244e-14 0)
(4.81818 -7.74367e-14 0)
(4.81818 -9.12091e-14 0)
(4.81818 -4.15438e-14 0)
(4.81818 3.91734e-14 0)
(4.81818 5.47895e-14 0)
(4.81818 5.47194e-14 0)
(4.81818 7.30559e-14 0)
(4.81818 7.20224e-14 0)
(4.81818 5.44894e-14 0)
(4.81818 1.43358e-14 0)
(4.81818 -1.44458e-14 0)
(4.81818 -1.7503e-14 0)
(4.81818 5.41827e-14 0)
(4.81818 1.40708e-13 0)
(4.81818 2.30106e-14 0)
(4.81818 1.89366e-14 0)
(4.81818 1.70863e-14 0)
(4.81818 5.54662e-14 0)
(4.81818 2.50843e-14 0)
(4.81818 -4.50611e-14 0)
(4.81818 -6.60714e-14 0)
(4.81818 -6.49312e-14 0)
(4.81818 -1.3799e-14 0)
(4.81818 -1.17354e-15 0)
(4.81818 -2.95684e-14 0)
(4.81818 -2.18638e-14 0)
(4.81818 5.73432e-15 0)
(4.81818 -1.18721e-14 0)
(4.81818 -3.99669e-14 0)
(4.81818 -3.45826e-14 0)
(4.81818 -6.05738e-14 0)
(4.81818 -9.74435e-14 0)
(4.81818 -7.27226e-14 0)
(4.81818 -6.23508e-14 0)
(4.81818 -2.86716e-15 0)
(4.81818 1.04618e-13 0)
(4.81818 1.00547e-13 0)
(4.81818 6.10272e-14 0)
(4.81818 5.13822e-14 0)
(4.81818 9.47197e-14 0)
(4.81818 1.10762e-13 0)
(4.81818 9.69834e-14 0)
(4.81818 4.93519e-14 0)
(4.81818 2.14604e-14 0)
(4.81818 1.12753e-14 0)
(4.81818 2.36307e-14 0)
(4.81818 -5.68765e-15 0)
(4.81818 -4.27741e-14 0)
(4.81818 -2.12037e-14 0)
(4.81818 -2.83382e-14 0)
(4.81818 -5.24791e-14 0)
(4.81818 4.41943e-14 0)
(4.81818 2.90183e-14 0)
(4.81818 1.69891e-14 0)
(4.81818 -1.20854e-14 0)
(4.81818 -1.3579e-14 0)
(4.81818 2.86049e-15 0)
(4.81818 1.91466e-14 0)
(4.81818 3.55095e-14 0)
(4.81818 4.33875e-14 0)
(4.81818 6.47812e-14 0)
(4.81818 6.40044e-14 0)
(4.81818 3.51494e-14 0)
(4.81818 5.01187e-14 0)
(4.81818 3.41759e-14 0)
(4.81818 -3.63263e-14 0)
(4.81818 -5.02987e-14 0)
(4.81818 -6.37543e-14 0)
(4.81818 -8.1264e-14 0)
(4.81818 -8.53714e-14 0)
(4.81818 -7.48996e-14 0)
(4.81818 -4.59413e-14 0)
(4.81818 -4.48611e-14 0)
(4.81818 -2.11737e-14 0)
(4.81818 -1.36324e-14 0)
(4.81818 -2.40642e-14 0)
(4.81818 -6.78851e-14 0)
(4.81818 -1.02431e-13 0)
(4.81818 -9.2546e-14 0)
(4.81818 -1.5166e-13 0)
(4.81818 -1.9123e-13 0)
(4.81818 -1.66559e-13 0)
(4.81818 -1.26042e-13 0)
(4.81818 -6.44278e-14 0)
(4.81818 -3.50494e-14 0)
(4.81818 -4.47244e-14 0)
(4.81818 -3.39225e-14 0)
(4.81818 -5.50362e-14 0)
(4.81818 -7.10489e-14 0)
(4.81818 -8.19575e-14 0)
(4.81818 -1.06348e-13 0)
(4.81818 -4.89818e-14 0)
(4.81818 -5.24424e-14 0)
(4.81818 -2.20066e-13 0)
(4.81818 -1.88233e-14 0)
(4.81818 -5.26491e-14 0)
(4.81818 -5.17989e-14 0)
(4.81818 -4.53778e-14 0)
(4.81818 6.30242e-14 0)
(4.81818 9.23026e-14 0)
(4.81818 7.02188e-14 0)
(4.81818 6.91853e-14 0)
(4.81818 7.72533e-14 0)
(4.81818 1.05528e-13 0)
(4.81818 9.2676e-14 0)
(4.81818 3.77599e-14 0)
(4.81818 1.95367e-15 0)
(4.81818 -7.53463e-15 0)
(4.81818 -4.4141e-15 0)
(4.81818 -6.33443e-16 0)
(4.81818 -2.14837e-14 0)
(4.81818 -2.50277e-14 0)
(4.81818 -2.66113e-14 0)
(4.81818 -4.77382e-14 0)
(4.81818 -6.9272e-14 0)
(4.81818 -7.59198e-14 0)
(4.81818 -4.38276e-14 0)
(4.81818 -1.45458e-14 0)
(4.81818 -7.38428e-14 0)
(4.81818 -2.5188e-13 0)
(4.81818 -2.3407e-13 0)
(4.81818 -1.67162e-13 0)
(4.81818 -1.47642e-13 0)
(4.81818 -1.42381e-13 0)
(4.81818 -3.72931e-14 0)
(4.81818 -5.33759e-14 0)
(4.81818 -5.69698e-14 0)
(4.81818 -6.31876e-14 0)
(4.81818 -2.15871e-14 0)
(4.81818 6.9512e-15 0)
(4.81818 1.90666e-14 0)
(4.81818 5.63197e-14 0)
(4.81818 -3.18722e-14 0)
(4.81818 -1.48243e-13 0)
(4.81818 9.79169e-15 0)
(4.81818 1.97367e-15 0)
(4.81818 -1.09986e-14 0)
(4.81818 -1.66529e-14 0)
(4.81818 9.18825e-15 0)
(4.81818 6.40011e-14 0)
(4.81818 5.95403e-14 0)
(4.81818 3.75732e-14 0)
(4.81818 4.65447e-14 0)
(4.81818 4.40209e-14 0)
(4.81818 1.77097e-14 0)
(4.81818 6.96787e-16 0)
(4.81818 7.25125e-15 0)
(4.81818 2.97051e-14 0)
(4.81818 8.50113e-14 0)
(4.81818 5.97537e-14 0)
(4.81818 3.40392e-14 0)
(4.81818 -2.77615e-14 0)
(4.81818 -4.51711e-14 0)
(4.81818 -6.75383e-14 0)
(4.81818 -8.56481e-14 0)
(4.81818 -8.99389e-14 0)
(4.81818 -5.29291e-14 0)
(4.81818 -2.92617e-14 0)
(4.81818 -6.27208e-14 0)
(4.81818 -1.14506e-13 0)
(4.81818 -9.36095e-14 0)
(4.81818 -8.59648e-14 0)
(4.81818 -8.0834e-14 0)
(4.81818 -6.91953e-14 0)
(4.81818 -7.43828e-14 0)
(4.81818 -7.78234e-14 0)
(4.81818 -1.02978e-13 0)
(4.81818 -6.52846e-14 0)
(4.81818 1.70696e-14 0)
(4.81818 1.20921e-14 0)
(4.81818 -1.67429e-14 0)
(4.81818 -1.83698e-15 0)
(4.81818 -5.08688e-14 0)
(4.81818 -1.19399e-13 0)
(4.81818 4.11071e-15 0)
(4.81818 1.98801e-14 0)
(4.81818 3.4686e-14 0)
(4.81818 6.46778e-15 0)
(4.81818 -1.67196e-14 0)
(4.81818 1.81065e-14 0)
(4.81818 1.67096e-14 0)
(4.81818 4.67981e-14 0)
(4.81818 4.31675e-14 0)
(4.81818 6.09239e-14 0)
(4.81818 9.76169e-14 0)
(4.81818 -1.32923e-14 0)
(4.81818 -3.12987e-14 0)
(4.81818 -3.51327e-14 0)
(4.81818 -1.61395e-14 0)
(4.81818 -4.85284e-14 0)
(4.81818 -2.43775e-14 0)
(4.81818 2.38575e-14 0)
(4.81818 3.87434e-14 0)
(4.81818 4.31041e-14 0)
(4.81818 3.75098e-14 0)
(4.81818 7.16457e-14 0)
(4.81818 8.02105e-14 0)
(4.81818 5.56029e-14 0)
(4.81818 -1.78397e-14 0)
(4.81818 -2.5311e-14 0)
(4.81818 -5.97136e-14 0)
(4.81818 -7.62498e-14 0)
(4.81818 -6.42878e-14 0)
(4.81818 -8.67116e-14 0)
(4.81818 -4.90485e-14 0)
(4.81818 -8.45813e-15 0)
(4.81818 1.14453e-14 0)
(4.81818 -1.53927e-14 0)
(4.81818 -3.29057e-14 0)
(4.81818 -4.83617e-14 0)
(4.81818 -4.53812e-14 0)
(4.81818 -7.41761e-14 0)
(4.81818 -1.13936e-13 0)
(4.81818 -1.3569e-13 0)
(4.81818 -2.07036e-15 0)
(4.81818 3.90167e-14 0)
(4.81818 6.25141e-14 0)
(4.81818 2.87683e-14 0)
(4.81818 -1.69629e-14 0)
(4.81818 -7.24825e-14 0)
(4.81818 -7.8937e-14 0)
(4.81818 2.60712e-15 0)
(4.81818 4.10771e-14 0)
(4.81818 2.1487e-14 0)
(4.81818 1.1702e-14 0)
(4.81818 -7.73467e-16 0)
(4.81818 -1.49759e-14 0)
(4.81818 -4.83517e-14 0)
(4.81818 -5.0132e-14 0)
(4.81818 -4.43077e-14 0)
(4.81818 4.10104e-14 0)
(4.81818 5.85601e-14 0)
(4.81818 3.59295e-14 0)
(4.81818 1.32223e-14 0)
(4.81818 5.05954e-14 0)
(4.81818 1.79574e-13 0)
(4.81818 1.89089e-13 0)
(4.81818 1.48416e-13 0)
(4.81818 9.02756e-14 0)
(4.81818 7.13357e-14 0)
(4.81818 3.31424e-14 0)
(4.81818 2.50477e-14 0)
(4.81818 6.31442e-14 0)
(4.81818 3.59962e-14 0)
(4.81818 -6.90819e-14 0)
(4.81818 -8.70784e-14 0)
(4.81818 -5.35492e-14 0)
(4.81818 -2.71447e-14 0)
(4.81818 -3.68597e-14 0)
(4.81818 -6.7335e-14 0)
(4.81818 -6.71649e-14 0)
(4.81818 -6.68815e-14 0)
(4.81818 -6.08305e-14 0)
(4.81818 -5.23818e-14 0)
(4.81818 1.70029e-15 0)
(4.81818 1.50826e-14 0)
(4.81818 4.86084e-15 0)
(4.81818 1.25288e-14 0)
(4.81818 -2.76981e-14 0)
(4.81818 -7.48563e-14 0)
(4.81818 -6.14506e-14 0)
(4.81818 -5.11655e-14 0)
(4.81818 -2.66579e-14 0)
(4.81818 -4.72915e-14 0)
(4.81818 -6.70049e-14 0)
(4.81818 -5.30092e-14 0)
(4.81818 -4.39543e-14 0)
(4.81818 -1.14486e-14 0)
(4.81818 4.44977e-14 0)
(4.81818 1.06172e-13 0)
(4.81818 1.15783e-13 0)
(4.81818 1.17074e-13 0)
(4.81818 1.16884e-13 0)
(4.81818 9.02723e-14 0)
(4.81818 7.77934e-14 0)
(4.81818 8.05606e-14 0)
(4.81818 9.76802e-14 0)
(4.81818 6.75783e-14 0)
(4.81818 7.3416e-14 0)
(4.81818 8.10273e-14 0)
(4.81818 1.47816e-13 0)
(4.81818 1.86139e-13 0)
(4.81818 1.57277e-13 0)
(4.81818 1.5559e-13 0)
(4.81818 1.39701e-13 0)
(4.81818 1.09005e-13 0)
(4.81818 1.23235e-13 0)
(4.81818 1.48979e-13 0)
(4.81818 1.21181e-13 0)
(4.81818 6.45845e-14 0)
(4.81818 -1.05718e-13 0)
(4.81818 -1.26712e-13 0)
(4.81818 -6.53313e-14 0)
(4.81818 -4.37839e-14 0)
(4.81818 -6.20107e-15 0)
(4.81818 -3.59629e-14 0)
(4.81818 -3.86567e-14 0)
(4.81818 -1.3319e-14 0)
(4.81818 3.53961e-14 0)
(4.81818 5.0082e-14 0)
(4.81818 1.04918e-14 0)
(4.81818 -2.14537e-14 0)
(4.81818 -2.10003e-14 0)
(4.81818 -3.58095e-14 0)
(4.81818 -4.53212e-14 0)
(4.81818 1.84699e-15 0)
(4.81818 3.57095e-14 0)
(4.81818 4.99286e-14 0)
(4.81818 1.03281e-13 0)
(4.81818 6.54046e-14 0)
(4.81818 1.51226e-14 0)
(4.81818 5.51529e-14 0)
(4.81818 9.31761e-14 0)
(4.81818 8.25576e-14 0)
(4.81818 7.54297e-14 0)
(4.81818 8.69584e-14 0)
(4.81818 3.12587e-14 0)
(4.81818 1.73797e-14 0)
(4.81818 1.39091e-14 0)
(4.81818 1.24255e-14 0)
(4.81818 7.5423e-14 0)
(4.81818 1.23355e-13 0)
(4.81818 1.23428e-13 0)
(4.81818 1.62425e-13 0)
(4.81818 2.51777e-13 0)
(4.81818 2.54537e-13 0)
(4.81818 2.30496e-13 0)
(4.81818 1.27789e-13 0)
(4.81818 9.14591e-14 0)
(4.81818 7.77401e-14 0)
(4.81818 5.36126e-14 0)
(4.81818 1.41124e-14 0)
(4.81818 9.63833e-15 0)
(4.81818 1.34549e-15 0)
(4.81818 3.92401e-15 0)
(4.81818 1.65195e-14 0)
(4.81818 5.72232e-14 0)
(4.81818 1.01794e-13 0)
(4.81818 1.33653e-13 0)
(4.81818 1.20127e-13 0)
(4.81818 6.23108e-14 0)
(4.81818 1.82365e-14 0)
(4.81818 1.12653e-14 0)
(4.81818 3.06386e-15 0)
(4.81818 -6.54446e-15 0)
(4.81818 7.38127e-14 0)
(4.81818 1.5584e-13 0)
(4.81818 1.44402e-13 0)
(4.81818 1.21468e-13 0)
(4.81818 6.86185e-14 0)
(4.81818 6.1524e-14 0)
(4.81818 6.27142e-14 0)
(4.81818 -5.26258e-14 0)
(4.81818 -8.57815e-14 0)
(4.81818 -6.55113e-14 0)
(4.81818 -3.31691e-14 0)
(4.81818 -2.81382e-15 0)
(4.81818 2.64379e-14 0)
(4.81818 5.97203e-14 0)
(4.81818 1.06442e-13 0)
(4.81818 8.96822e-14 0)
(4.81818 6.3651e-14 0)
(4.81818 3.83233e-14 0)
(4.81818 -9.67167e-15 0)
(4.81818 5.49862e-14 0)
(4.81818 8.14107e-14 0)
(4.81818 4.88218e-14 0)
(4.81818 -2.03669e-14 0)
(4.81818 2.20538e-14 0)
(4.81818 5.52895e-14 0)
(4.81818 1.13013e-13 0)
(4.81818 1.27625e-13 0)
(4.81818 7.32026e-14 0)
(4.81818 7.42738e-14 0)
(4.81818 7.96471e-15 0)
(4.81818 1.77797e-14 0)
(4.81818 1.57694e-15 0)
(4.81818 -2.26139e-14 0)
(4.81818 -4.56079e-14 0)
(4.81818 -4.31174e-14 0)
(4.81818 -1.947e-15 0)
(4.81818 -3.62729e-14 0)
(4.81818 -7.55597e-14 0)
(4.81818 -7.1339e-14 0)
(4.81818 3.94468e-14 0)
(4.81818 9.56699e-14 0)
(4.81818 1.12506e-13 0)
(4.81818 1.3368e-13 0)
(4.81818 9.00255e-14 0)
(4.81818 1.28439e-13 0)
(4.81818 1.25362e-13 0)
(4.81818 2.64579e-14 0)
(4.81818 -1.11206e-13 0)
(4.81818 -1.09039e-13 0)
(4.81818 -6.54413e-14 0)
(4.81818 -6.78284e-14 0)
(4.81818 -6.81184e-14 0)
(4.81818 -3.33324e-14 0)
(4.81818 6.5868e-14 0)
(4.81818 1.05802e-13 0)
(4.81818 9.01589e-14 0)
(4.81818 6.86585e-14 0)
(4.81818 9.80103e-14 0)
(4.81818 4.75982e-14 0)
(4.81818 -4.32075e-14 0)
(4.81818 -9.623e-14 0)
(4.81818 -1.09052e-13 0)
(4.81818 -1.00534e-13 0)
(4.81818 2.80182e-14 0)
(4.81818 4.35175e-14 0)
(4.81818 3.57495e-14 0)
(4.81818 5.98837e-14 0)
(4.81818 3.78099e-14 0)
(4.81818 1.50549e-14 0)
(4.81818 -2.55044e-15 0)
(4.81818 -3.09453e-14 0)
(4.81818 -3.99502e-14 0)
(4.81818 -7.96738e-14 0)
(4.81818 -9.84237e-14 0)
(4.81818 -1.21861e-13 0)
(4.81818 -1.10562e-13 0)
(4.81818 -1.00707e-13 0)
(4.81818 -8.11573e-14 0)
(4.81818 -1.14586e-14 0)
(4.81818 6.32609e-14 0)
(4.81818 1.71096e-14 0)
(4.81818 -1.36157e-14 0)
(4.81818 -1.24522e-14 0)
(4.81818 3.15688e-14 0)
(4.81818 8.24776e-14 0)
(4.81818 5.55229e-14 0)
(4.81818 1.10019e-15 0)
(4.81818 1.1382e-14 0)
(4.81818 1.3589e-14 0)
(4.81818 -6.86719e-14 0)
(4.81818 -1.35433e-13 0)
(4.81818 -1.73647e-13 0)
(4.81818 -8.75985e-14 0)
(4.81818 -9.61166e-15 0)
(4.81818 4.59113e-14 0)
(4.81818 9.26927e-14 0)
(4.81818 1.10326e-13 0)
(4.81818 1.40818e-13 0)
(4.81818 8.00438e-14 0)
(4.81818 3.55195e-14 0)
(4.81818 -1.71063e-14 0)
(4.81818 -2.83616e-14 0)
(4.81818 5.60097e-15 0)
(4.81818 7.11456e-15 0)
(4.81818 1.76197e-14 0)
(4.81818 4.60713e-14 0)
(4.81818 4.20539e-14 0)
(4.81818 4.75349e-14 0)
(4.81818 -1.27742e-14 0)
(4.81818 -1.00584e-14 0)
(4.81818 -3.04019e-14 0)
(4.81818 -6.53213e-14 0)
(4.81818 -7.82135e-14 0)
(4.81818 -6.05471e-14 0)
(4.81818 -2.68013e-14 0)
(4.81818 -9.78169e-15 0)
(4.81818 3.32524e-14 0)
(4.81818 6.83085e-14 0)
(4.81818 7.01521e-14 0)
(4.81818 1.87966e-14 0)
(4.81818 -2.77581e-14 0)
(4.81818 -3.79932e-14 0)
(4.81818 -4.52878e-14 0)
(4.81818 -5.98103e-15 0)
(4.81818 8.16808e-16 0)
(4.81818 -2.3334e-14 0)
(4.81818 -1.5426e-14 0)
(4.81818 -4.17372e-14 0)
(4.81818 -7.39428e-14 0)
(4.81818 -1.37654e-13 0)
(4.81818 -1.72623e-13 0)
(4.81818 -1.46115e-13 0)
(4.81818 -1.29882e-13 0)
(4.81818 -1.19694e-13 0)
(4.81818 -1.16087e-14 0)
(4.81818 1.11376e-13 0)
(4.81818 1.07942e-13 0)
(4.81818 4.50378e-14 0)
(4.81818 -1.82532e-14 0)
(4.81818 -4.73515e-14 0)
(4.81818 -8.07273e-14 0)
(4.81818 -1.02944e-13 0)
(4.81818 -5.08188e-14 0)
(4.81818 -2.56478e-14 0)
(4.81818 -7.70466e-15 0)
(4.81818 2.84016e-14 0)
(4.81818 2.80415e-14 0)
(4.81818 -6.1844e-14 0)
(4.81818 -2.71966e-14 0)
(4.81818 -3.69731e-15 0)
(4.81818 -1.64028e-14 0)
(4.81818 -3.56095e-14 0)
(4.81818 -5.20957e-14 0)
(4.81818 -5.80767e-14 0)
(4.81818 -2.8805e-15 0)
(4.81818 5.0332e-14 0)
(4.81818 5.25957e-14 0)
(4.81818 3.20989e-14 0)
(4.81818 -1.1632e-14 0)
(4.81818 -4.30574e-14 0)
(4.81818 -4.97386e-14 0)
(4.81818 -1.3459e-14 0)
(4.81818 -1.34557e-14 0)
(4.81818 -3.65163e-14 0)
(4.81818 -5.50962e-14 0)
(4.81818 -9.0589e-14 0)
(4.81818 -1.29572e-13 0)
(4.81818 -2.20275e-13 0)
(4.81818 -2.40328e-13 0)
(4.81818 -1.96991e-13 0)
(4.81818 -1.22711e-13 0)
(4.81818 -5.32392e-14 0)
(4.81818 -4.58112e-14 0)
(4.81818 -7.49029e-14 0)
(4.81818 -6.97287e-14 0)
(4.81818 -2.93251e-14 0)
(4.81818 -4.52845e-14 0)
(4.81818 -1.43151e-13 0)
(4.81818 -1.35253e-13 0)
(4.81818 -9.21626e-14 0)
(4.81818 -4.23273e-14 0)
(4.81818 1.09319e-14 0)
(4.81818 3.99269e-14 0)
(4.81818 5.70499e-14 0)
(4.81818 -2.22572e-14 0)
(4.81818 -5.85968e-14 0)
(4.81818 -3.26956e-14 0)
(4.81818 3.0942e-14 0)
(4.81818 5.24714e-14 0)
(4.81818 8.19475e-15 0)
(4.81818 5.1979e-14 0)
(4.81818 5.32492e-14 0)
(4.81818 2.7068e-14 0)
(4.81818 4.66581e-14 0)
(4.81818 6.80751e-14 0)
(4.81818 -7.46796e-16 0)
(4.81818 -5.99103e-14 0)
(4.81818 -4.14805e-14 0)
(4.81818 -5.28391e-14 0)
(4.81818 -9.37229e-14 0)
(4.81818 -1.36804e-13 0)
(4.81818 -1.1821e-13 0)
(4.81818 -1.06022e-13 0)
(4.81818 -9.51764e-14 0)
(4.81818 -1.20954e-13 0)
(4.81818 -1.15367e-13 0)
(4.81818 -1.02454e-13 0)
(4.81818 -9.46163e-14 0)
(4.81818 -7.28959e-14 0)
(4.81818 -6.55113e-15 0)
(4.81818 -5.24324e-14 0)
(4.81818 -5.08588e-14 0)
(4.81818 -6.96754e-14 0)
(4.81818 -1.7272e-13 0)
(4.81818 -2.02578e-13 0)
(4.81818 -1.09035e-13 0)
(4.81818 2.14337e-14 0)
(4.81818 -2.61979e-14 0)
(4.81818 -5.25324e-14 0)
(4.81818 -9.85837e-15 0)
(4.81818 1.07785e-14 0)
(4.81818 4.37376e-14 0)
(4.81818 6.02371e-14 0)
(4.81818 6.19707e-14 0)
(4.81818 3.70097e-14 0)
(4.81818 -1.61961e-14 0)
(4.81818 -3.0672e-16 0)
(4.81818 5.85701e-14 0)
(4.81818 1.239e-13 0)
(4.81818 2.76714e-15 0)
(4.81818 5.31425e-15 0)
(4.81818 2.54244e-14 0)
(4.81818 8.20308e-14 0)
(4.81818 8.8842e-14 0)
(4.81818 2.14404e-14 0)
(4.81818 -8.56815e-15 0)
(4.81818 -3.50427e-14 0)
(4.81818 -4.66147e-14 0)
(4.81818 -3.59429e-14 0)
(4.81818 -6.58247e-14 0)
(4.81818 -1.40121e-13 0)
(4.81818 -1.3644e-13 0)
(4.81818 -1.04761e-13 0)
(4.81818 -6.1534e-14 0)
(4.81818 -3.58462e-14 0)
(4.81818 -4.49011e-14 0)
(4.81818 -6.61114e-15 0)
(4.81818 4.12871e-14 0)
(4.81818 9.43596e-14 0)
(4.81818 7.60665e-14 0)
(4.81818 4.21906e-14 0)
(4.81818 1.91466e-14 0)
(4.81818 -7.41461e-15 0)
(4.81818 -7.85802e-14 0)
(4.81818 -1.92543e-13 0)
(4.81818 -1.28312e-13 0)
(4.81818 -7.73567e-14 0)
(4.81818 -6.76784e-15 0)
(4.81818 -8.78152e-15 0)
(4.81818 -6.7445e-14 0)
(4.81818 -9.72168e-14 0)
(4.81818 -1.62568e-13 0)
(4.81818 -2.42542e-13 0)
(4.81818 -1.87669e-13 0)
(4.81818 -7.42161e-14 0)
(4.81818 1.32189e-14 0)
(4.81818 -8.47146e-15 0)
(4.81818 -7.01454e-15 0)
(4.81818 -1.72709e-14 0)
(4.81818 -9.26493e-15 0)
(4.81818 -2.73381e-16 0)
(4.81818 3.41426e-14 0)
(4.81818 5.4156e-14 0)
(4.81818 2.05836e-14 0)
(4.81818 -4.00769e-14 0)
(4.81818 -3.47493e-14 0)
(4.81818 6.59781e-15 0)
(4.81818 -9.41163e-15 0)
(4.81818 -1.69396e-14 0)
(4.81818 -8.31144e-15 0)
(4.81818 -2.42809e-14 0)
(4.81818 -4.39143e-14 0)
(4.81818 -1.84032e-14 0)
(4.81818 -4.80883e-14 0)
(4.81818 9.98506e-15 0)
(4.81818 2.84949e-14 0)
(4.81818 3.53261e-14 0)
(4.81818 6.72183e-14 0)
(4.81818 3.33391e-15 0)
(4.81818 -4.74049e-14 0)
(4.81818 -4.78016e-14 0)
(4.81818 -4.9942e-15 0)
(4.81818 4.4491e-14 0)
(4.81818 -7.57131e-15 0)
(4.81818 1.5596e-14 0)
(4.81818 3.92668e-14 0)
(4.81818 2.76848e-14 0)
(4.81818 -6.37443e-15 0)
(4.81818 -4.63913e-14 0)
(4.81818 -7.25325e-14 0)
(4.81818 -7.79368e-14 0)
(4.81818 -1.02524e-13 0)
(4.81818 -1.62225e-13 0)
(4.81818 -1.81941e-13 0)
(4.81818 -1.22595e-13 0)
(4.81818 -7.84802e-15 0)
(4.81818 2.81982e-14 0)
(4.81818 1.12793e-13 0)
(4.81818 1.62645e-13 0)
(4.81818 -6.65448e-15 0)
(4.81818 -3.40059e-16 0)
(4.81818 1.63128e-14 0)
(4.81818 2.74047e-15 0)
(4.81818 -1.05085e-14 0)
(4.81818 9.50831e-15 0)
(4.81818 -7.42128e-15 0)
(4.81818 -3.32924e-14 0)
(4.81818 -2.79648e-14 0)
(4.81818 -3.847e-14 0)
(4.81818 -4.08304e-14 0)
(4.81818 2.39308e-14 0)
(4.81818 6.11106e-14 0)
(4.81818 1.87232e-14 0)
(4.81818 -4.32841e-14 0)
(4.81818 1.65895e-14 0)
(4.81818 6.96254e-14 0)
(4.81818 1.08089e-13 0)
(4.81818 1.18444e-13 0)
(4.81818 3.16021e-14 0)
(4.81818 1.58294e-14 0)
(4.81818 1.30423e-14 0)
(4.81818 -8.15141e-15 0)
(4.81818 -3.21722e-15 0)
(4.81818 1.85265e-14 0)
(4.81818 1.81998e-14 0)
(4.81818 -2.22305e-14 0)
(4.81818 -4.29407e-15 0)
(4.81818 -7.33293e-14 0)
(4.81818 -2.02802e-13 0)
(4.81818 -2.43705e-13 0)
(4.81818 -2.25322e-13 0)
(4.81818 -1.61881e-13 0)
(4.81818 -1.39594e-13 0)
(4.81818 -1.43215e-13 0)
(4.81818 -1.39274e-13 0)
(4.81818 -7.18724e-14 0)
(4.81818 -5.39093e-15 0)
(4.81818 3.96035e-14 0)
(4.81818 9.17397e-14 0)
(4.81818 -2.07036e-15 0)
(4.81818 -1.99701e-14 0)
(4.81818 -8.89154e-15 0)
(4.81818 -1.51193e-14 0)
(4.81818 -1.76964e-14 0)
(4.81818 3.36391e-15 0)
(4.81818 1.23755e-14 0)
(4.81818 2.2904e-15 0)
(4.81818 -3.37692e-14 0)
(4.81818 -2.39508e-14 0)
(4.81818 1.75697e-14 0)
(4.81818 7.00354e-14 0)
(4.81818 1.58614e-13 0)
(4.81818 1.18337e-13 0)
(4.81818 -4.63413e-16 0)
(4.81818 -4.71148e-14 0)
(4.81818 -4.19172e-14 0)
(4.81818 -2.45042e-15 0)
(4.81818 1.07209e-13 0)
(4.81818 1.43558e-13 0)
(4.81818 1.40171e-13 0)
(4.81818 1.01531e-13 0)
(4.81818 7.54997e-14 0)
(4.81818 1.12316e-13 0)
(4.81818 1.03024e-13 0)
(4.81818 -6.5908e-14 0)
(4.81818 -1.21001e-13 0)
(4.81818 -1.1303e-13 0)
(4.81818 -1.02571e-13 0)
(4.81818 -7.01621e-14 0)
(4.81818 -3.15521e-14 0)
(4.81818 1.55127e-14 0)
(4.81818 -2.85883e-14 0)
(4.81818 -1.13753e-13 0)
(4.81818 -1.46095e-13 0)
(4.81818 -1.74834e-13 0)
(4.81818 -1.82882e-13 0)
(4.81818 -1.60164e-13 0)
(4.81818 -6.09772e-14 0)
(4.81818 1.80133e-14 0)
(4.81818 2.26706e-16 0)
(4.81818 -5.83767e-15 0)
(4.81818 -6.49779e-15 0)
(4.81818 -2.81982e-14 0)
(4.81818 -4.0707e-15 0)
(4.81818 4.12071e-15 0)
(4.81818 4.55245e-14 0)
(4.81818 3.18122e-14 0)
(4.81818 2.73914e-14 0)
(4.81818 1.02628e-13 0)
(4.81818 1.41228e-13 0)
(4.81818 1.29852e-13 0)
(4.81818 3.60496e-14 0)
(4.81818 2.44576e-14 0)
(4.81818 2.30306e-14 0)
(4.81818 1.96834e-14 0)
(4.81818 7.46796e-16 0)
(4.81818 -2.75848e-14 0)
(4.81818 -2.58378e-14 0)
(4.81818 2.96385e-15 0)
(4.81818 3.58162e-14 0)
(4.81818 3.872e-14 0)
(4.81818 6.7415e-14 0)
(4.81818 1.77611e-13 0)
(4.81818 3.4906e-14 0)
(4.81818 -1.1336e-13 0)
(4.81818 -1.33553e-13 0)
(4.81818 -1.61255e-13 0)
(4.81818 -1.45192e-13 0)
(4.81818 5.18656e-14 0)
(4.81818 1.35093e-13 0)
(4.81818 1.02201e-13 0)
(4.81818 7.63332e-14 0)
(4.81818 -3.96735e-16 0)
(4.81818 -3.97635e-14 0)
(4.81818 -7.96671e-14 0)
(4.81818 -9.70568e-14 0)
(4.81818 -9.34295e-14 0)
(4.81818 -1.89019e-13 0)
(4.81818 -5.8326e-14 0)
(4.81818 -1.35023e-15 0)
(4.81818 1.81631e-14 0)
(4.81818 -2.29373e-15 0)
(4.81818 1.19687e-15 0)
(4.81818 3.02586e-14 0)
(4.81818 6.61781e-14 0)
(4.81818 5.65998e-14 0)
(4.81818 3.12154e-14 0)
(4.81818 6.46045e-14 0)
(4.81818 9.13324e-14 0)
(4.81818 9.86137e-14 0)
(4.81818 7.75267e-14 0)
(4.81818 2.68446e-14 0)
(4.81818 -3.67563e-14 0)
(4.81818 -1.66395e-14 0)
(4.81818 -2.51443e-14 0)
(4.81818 -4.52878e-14 0)
(4.81818 -2.87916e-14 0)
(4.81818 -8.64216e-14 0)
(4.81818 -3.93535e-14 0)
(4.81818 -2.96151e-14 0)
(4.81818 -2.44842e-14 0)
(4.81818 5.50695e-14 0)
(4.81818 1.05191e-13 0)
(4.81818 7.67633e-14 0)
(4.81818 8.85553e-14 0)
(4.81818 9.44163e-14 0)
(4.81818 4.39109e-14 0)
(4.81818 3.4776e-14 0)
(4.81818 1.19454e-13 0)
(4.81818 1.90706e-13 0)
(4.81818 1.64762e-13 0)
(4.81818 9.8277e-14 0)
(4.81818 1.01348e-13 0)
(4.81818 1.64128e-14 0)
(4.81818 -6.23341e-14 0)
(4.81818 -5.17256e-14 0)
(4.81818 -6.34676e-14 0)
(4.81818 -1.59614e-13 0)
(4.81818 -1.65157e-13 0)
(4.81818 3.27123e-14 0)
(4.81818 3.02552e-14 0)
(4.81818 -6.98787e-15 0)
(4.81818 -1.80598e-14 0)
(4.81818 -2.72447e-14 0)
(4.81818 2.54044e-15 0)
(4.81818 1.27022e-14 0)
(4.81818 6.92753e-14 0)
(4.81818 8.10107e-14 0)
(4.81818 1.46192e-14 0)
(4.81818 -7.67999e-14 0)
(4.81818 -1.35347e-13 0)
(4.81818 -1.46722e-13 0)
(4.81818 -1.78828e-13 0)
(4.81818 -1.45145e-13 0)
(4.81818 -1.39707e-13 0)
(4.81818 -1.34233e-13 0)
(4.81818 -8.73217e-14 0)
(4.81818 -5.19423e-15 0)
(4.81818 2.3434e-14 0)
(4.81818 -6.43444e-15 0)
(4.81818 -4.89951e-14 0)
(4.81818 -4.31408e-15 0)
(4.81818 9.625e-14 0)
(4.81818 1.70049e-13 0)
(4.81818 1.7428e-13 0)
(4.81818 1.62108e-13 0)
(4.81818 6.71416e-14 0)
(4.81818 1.924e-14 0)
(4.81818 3.39192e-14 0)
(4.81818 5.88835e-14 0)
(4.81818 9.01322e-14 0)
(4.81818 1.35043e-13 0)
(4.81818 1.47592e-13 0)
(4.81818 1.27312e-13 0)
(4.81818 1.68236e-13 0)
(4.81818 7.45529e-14 0)
(4.81818 -6.85585e-14 0)
(4.81818 -1.1538e-13 0)
(4.81818 -8.86548e-14 0)
(4.81818 4.50078e-16 0)
(4.81818 -2.17871e-14 0)
(4.81818 -1.98301e-14 0)
(4.81818 -6.55447e-14 0)
(4.81818 -8.2871e-14 0)
(4.81818 -9.51764e-14 0)
(4.81818 -3.49194e-14 0)
(4.81818 -3.37292e-14 0)
(4.81818 -7.60765e-14 0)
(4.81818 -1.86562e-13 0)
(4.81818 -2.37944e-13 0)
(4.81818 -2.12273e-13 0)
(4.81818 -1.29952e-13 0)
(4.81818 -1.18884e-13 0)
(4.81818 -1.21548e-13 0)
(4.81818 -9.96639e-14 0)
(4.81818 -4.52011e-14 0)
(4.81818 -2.38708e-14 0)
(4.81818 3.01052e-14 0)
(4.81818 -3.77098e-14 0)
(4.81818 -8.92754e-14 0)
(4.81818 -6.22741e-14 0)
(4.81818 -5.23524e-14 0)
(4.81818 -2.27639e-14 0)
(4.81818 5.17623e-14 0)
(4.81818 -4.63513e-14 0)
(4.81818 -9.0609e-14 0)
(4.81818 -7.40528e-14 0)
(4.81818 -7.81002e-14 0)
(4.81818 -7.77801e-14 0)
(4.81818 -7.39328e-14 0)
(4.81818 -5.81534e-14 0)
(4.81818 8.77151e-15 0)
(4.81818 2.04969e-14 0)
(4.81818 2.25239e-14 0)
(4.81818 4.22806e-14 0)
(4.81818 1.70296e-14 0)
(4.81818 -5.16122e-14 0)
(4.81818 -6.39344e-14 0)
(4.81818 -6.66711e-14 0)
(4.81818 -3.39059e-14 0)
(4.81818 -2.84182e-14 0)
(4.81818 -2.86283e-14 0)
(4.81818 -1.82398e-14 0)
(4.81818 -1.71596e-14 0)
(4.81818 -3.56162e-14 0)
(4.81818 -1.40834e-13 0)
(4.81818 -1.87449e-13 0)
(4.81818 -1.94334e-13 0)
(4.81818 -1.31659e-13 0)
(4.81818 -1.08345e-13 0)
(4.81818 -6.89586e-14 0)
(4.81818 1.59027e-15 0)
(4.81818 1.20821e-14 0)
(4.81818 -2.37041e-15 0)
(4.81818 6.06438e-15 0)
(4.81818 4.65414e-14 0)
(4.81818 6.75083e-14 0)
(4.81818 7.28059e-14 0)
(4.81818 4.0707e-14 0)
(4.81818 3.94401e-15 0)
(4.81818 1.96967e-14 0)
(4.81818 5.74433e-15 0)
(4.81818 3.884e-15 0)
(4.81818 -1.07862e-13 0)
(4.81818 -1.66772e-13 0)
(4.81818 -1.95267e-13 0)
(4.81818 -1.67946e-13 0)
(4.81818 -8.53747e-14 0)
(4.81818 -4.59313e-14 0)
(4.81818 -2.01868e-14 0)
(4.81818 -3.14988e-14 0)
(4.81818 -5.0342e-14 0)
(4.81818 -2.38808e-14 0)
(4.81818 -1.07685e-15 0)
(4.81818 -7.58798e-15 0)
(4.81818 -6.17707e-14 0)
(4.81818 -4.78916e-14 0)
(4.81818 7.76234e-14 0)
(4.81818 6.29628e-14 0)
(4.81818 -5.45428e-15 0)
(4.81818 -2.7038e-15 0)
(4.81818 3.43726e-15 0)
(4.81818 3.81733e-15 0)
(4.81818 2.78048e-15 0)
(4.81818 -7.42128e-15 0)
(4.81818 -4.49244e-14 0)
(4.81818 -3.67363e-14 0)
(4.81818 5.34159e-14 0)
(4.81818 5.25657e-14 0)
(4.81818 3.38859e-14 0)
(4.81818 1.92933e-14 0)
(4.81818 5.46094e-14 0)
(4.81818 2.95418e-14 0)
(4.81818 -8.01138e-15 0)
(4.81818 -1.944e-14 0)
(4.81818 1.88333e-14 0)
(4.81818 4.42176e-14 0)
(4.81818 1.56794e-14 0)
(4.81818 9.41163e-15 0)
(4.81818 9.82836e-15 0)
(4.81818 -8.45846e-14 0)
(4.81818 -1.25635e-13 0)
(4.81818 -1.43188e-13 0)
(4.81818 -1.04658e-13 0)
(4.81818 -9.41763e-14 0)
(4.81818 -6.88019e-14 0)
(4.81818 -4.31908e-14 0)
(4.81818 -4.51645e-14 0)
(4.81818 -5.01287e-14 0)
(4.81818 -2.89917e-14 0)
(4.81818 -1.76697e-16 0)
(4.81818 3.38725e-14 0)
(4.81818 1.05238e-13 0)
(4.81818 2.01275e-13 0)
(4.81818 2.08806e-13 0)
(4.81818 1.88976e-13 0)
(4.81818 1.67362e-13 0)
(4.81818 6.37743e-14 0)
(4.81818 -2.98565e-14 0)
(4.81818 8.06806e-15 0)
(4.81818 1.27355e-15 0)
(4.81818 2.53377e-16 0)
(4.81818 1.48459e-14 0)
(4.81818 3.05453e-14 0)
(4.81818 5.08488e-14 0)
(4.81818 7.83769e-14 0)
(4.81818 7.88603e-14 0)
(4.81818 6.45845e-14 0)
(4.81818 4.15205e-14 0)
(4.81818 3.75865e-14 0)
(4.81818 4.14972e-14 0)
(4.81818 2.90817e-14 0)
(4.81818 9.4683e-15 0)
(4.81818 -1.42025e-15 0)
(4.81818 -5.67098e-14 0)
(4.81818 -5.92802e-14 0)
(4.81818 -7.87936e-14 0)
(4.81818 -9.51731e-14 0)
(4.81818 -8.46379e-14 0)
(4.81818 -4.73982e-14 0)
(4.81818 1.42258e-14 0)
(4.81818 8.46813e-15 0)
(4.81818 -3.80266e-14 0)
(4.81818 -5.22824e-14 0)
(4.81818 -7.45195e-14 0)
(4.81818 -8.13474e-16 0)
(4.81818 5.14355e-14 0)
(4.81818 8.18708e-14 0)
(4.81818 4.68881e-14 0)
(4.81818 5.34426e-14 0)