/*--------------------------------*- C++ -*----------------------------------*\
| =========                 |                                                 |
| \\      /  F ield         | OpenFOAM: The Open Source CFD Toolbox           |
|  \\    /   O peration     | Version:  2206                                  |
|   \\  /    A nd           | Website:  www.openfoam.com                      |
|    \\/     M anipulation  |                                                 |
\*---------------------------------------------------------------------------*/
FoamFile
{
    version     2.0;
    format      ascii;
    arch        "LSB;label=32;scalar=64";
    class       volVectorField;
    location    "0.06";
    object      U;
}
// * * * * * * * * * * * * * * * * * * * * * * * * * * * * * * * * * * * * * //

dimensions      [0 1 -1 0 0 0 0];

internalField   nonuniform List<vector> 
4800
(
(4.57576 4.49078e-15 0)
(4.57576 -1.10419e-14 0)
(4.57576 1.48426e-14 0)
(4.57576 1.92167e-14 0)
(4.57576 1.01014e-13 0)
(4.57576 1.64965e-13 0)
(4.57576 1.75234e-13 0)
(4.57576 1.91656e-13 0)
(4.57576 1.83222e-13 0)
(4.57576 1.45098e-13 0)
(4.57576 1.23691e-13 0)
(4.57576 9.41629e-14 0)
(4.57576 9.32628e-14 0)
(4.57576 1.06905e-13 0)
(4.57576 7.8927e-14 0)
(4.57576 5.27824e-14 0)
(4.57576 6.13939e-14 0)
(4.57576 6.64515e-14 0)
(4.57576 6.59147e-14 0)
(4.57576 3.01619e-14 0)
(4.57576 2.08736e-14 0)
(4.57576 4.77049e-14 0)
(4.57576 1.12976e-13 0)
(4.57576 8.56981e-14 0)
(4.57576 7.59965e-14 0)
(4.57576 8.02172e-14 0)
(4.57576 8.78152e-14 0)
(4.57576 1.07285e-14 0)
(4.57576 -7.17991e-14 0)
(4.57576 -7.30326e-14 0)
(4.57576 -4.09004e-14 0)
(4.57576 3.27056e-15 0)
(4.57576 1.11909e-13 0)
(4.57576 1.95224e-13 0)
(4.57576 2.22828e-13 0)
(4.57576 2.26986e-13 0)
(4.57576 1.00107e-13 0)
(4.57576 1.52826e-14 0)
(4.57576 -7.42562e-14 0)
(4.57576 -1.12956e-13 0)
(4.57576 2.24906e-14 0)
(4.57576 3.45493e-14 0)
(4.57576 6.67915e-14 0)
(4.57576 1.40824e-13 0)
(4.57576 1.68402e-13 0)
(4.57576 1.47645e-13 0)
(4.57576 1.75044e-13 0)
(4.57576 2.04532e-13 0)
(4.57576 1.93043e-13 0)
(4.57576 1.28679e-13 0)
(4.57576 9.76102e-14 0)
(4.57576 2.05335e-14 0)
(4.57576 9.70168e-16 0)
(4.57576 1.69463e-14 0)
(4.57576 -1.57827e-14 0)
(4.57576 -3.08053e-15 0)
(4.57576 -2.1437e-15 0)
(4.57576 -2.16037e-14 0)
(4.57576 2.05502e-14 0)
(4.57576 4.37742e-15 0)
(4.57576 1.3369e-14 0)
(4.57576 1.32956e-14 0)
(4.57576 3.27123e-14 0)
(4.57576 -4.43577e-14 0)
(4.57576 -1.26248e-13 0)
(4.57576 -1.33286e-13 0)
(4.57576 -5.9847e-14 0)
(4.57576 -8.54748e-14 0)
(4.57576 -4.83917e-14 0)
(4.57576 -5.49462e-14 0)
(4.57576 -4.91318e-14 0)
(4.57576 -3.88034e-14 0)
(4.57576 4.18739e-15 0)
(4.57576 5.16356e-14 0)
(4.57576 8.34344e-14 0)
(4.57576 1.18437e-13 0)
(4.57576 6.33576e-14 0)
(4.57576 -6.66282e-14 0)
(4.57576 -1.02904e-13 0)
(4.57576 -1.30053e-13 0)
(4.57576 -1.52693e-15 0)
(4.57576 2.08436e-14 0)
(4.57576 1.30022e-16 0)
(4.57576 4.63413e-15 0)
(4.57576 -2.82816e-14 0)
(4.57576 -4.15905e-14 0)
(4.57576 -5.04454e-14 0)
(4.57576 -1.96267e-14 0)
(4.57576 -7.04455e-15 0)
(4.57576 -1.00617e-14 0)
(4.57576 -6.26041e-14 0)
(4.57576 -1.08209e-13 0)
(4.57576 -1.07692e-13 0)
(4.57576 -1.14963e-13 0)
(4.57576 -1.02594e-13 0)
(4.57576 -4.27641e-14 0)
(4.57576 -4.79716e-14 0)
(4.57576 -5.09655e-14 0)
(4.57576 3.41259e-14 0)
(4.57576 4.0817e-14 0)
(4.57576 3.60396e-14 0)
(4.57576 9.29394e-14 0)
(4.57576 1.39441e-13 0)
(4.57576 1.26022e-13 0)
(4.57576 5.42394e-14 0)
(4.57576 1.85065e-14 0)
(4.57576 1.3429e-14 0)
(4.57576 3.04586e-14 0)
(4.57576 9.78836e-14 0)
(4.57576 1.16713e-13 0)
(4.57576 1.86366e-15 0)
(4.57576 -5.54129e-14 0)
(4.57576 -7.65766e-14 0)
(4.57576 -2.80715e-15 0)
(4.57576 1.35627e-13 0)
(4.57576 1.79394e-13 0)
(4.57576 1.93817e-13 0)
(4.57576 1.11146e-13 0)
(4.57576 1.46992e-14 0)
(4.57576 3.81762e-14 0)
(4.57576 -2.66379e-15 0)
(4.57576 -3.02386e-15 0)
(4.57576 -3.04619e-14 0)
(4.57576 -5.90502e-14 0)
(4.57576 -5.70665e-14 0)
(4.57576 -5.87868e-14 0)
(4.57576 -7.35527e-14 0)
(4.57576 -5.0112e-14 0)
(4.57576 -5.5723e-14 0)
(4.57576 -8.18875e-14 0)
(4.57576 -1.38287e-13 0)
(4.57576 -9.58932e-14 0)
(4.57576 -5.26758e-14 0)
(4.57576 -2.76148e-14 0)
(4.57576 4.0457e-14 0)
(4.57576 4.32841e-14 0)
(4.57576 5.10388e-14 0)
(4.57576 8.52881e-14 0)
(4.57576 1.61261e-14 0)
(4.57576 3.47693e-14 0)
(4.57576 8.61949e-14 0)
(4.57576 1.26565e-13 0)
(4.57576 7.43028e-14 0)
(4.57576 5.65364e-14 0)
(4.57576 5.68198e-14 0)
(4.57576 3.39492e-14 0)
(4.57576 2.04535e-14 0)
(4.57576 6.94453e-14 0)
(4.57576 2.64346e-14 0)
(4.57576 5.18923e-14 0)
(4.57576 7.1219e-14 0)
(4.57576 5.12188e-14 0)
(4.57576 5.31392e-14 0)
(4.57576 9.19659e-14 0)
(4.57576 8.47746e-14 0)
(4.57576 6.68282e-14 0)
(4.57576 5.03687e-14 0)
(4.57576 3.24956e-14 0)
(4.57576 6.43644e-14 0)
(4.57576 9.06506e-14 0)
(4.57576 1.3529e-14 0)
(4.57576 1.27955e-14 0)
(4.57576 1.86832e-14 0)
(4.57576 3.83833e-14 0)
(4.57576 3.77865e-14 0)
(4.57576 -2.87883e-14 0)
(4.57576 -1.00831e-13 0)
(4.57576 -1.75277e-13 0)
(4.57576 -1.92983e-13 0)
(4.57576 -1.5474e-13 0)
(4.57576 -1.30042e-13 0)
(4.57576 -9.65033e-14 0)
(4.57576 -7.75167e-14 0)
(4.57576 -6.1574e-14 0)
(4.57576 -4.56112e-14 0)
(4.57576 5.56096e-15 0)
(4.57576 2.37374e-15 0)
(4.57576 -3.29157e-14 0)
(4.57576 -5.87835e-14 0)
(4.57576 -4.79216e-14 0)
(4.57576 1.1562e-14 0)
(4.57576 1.93767e-14 0)
(4.57576 -9.86837e-15 0)
(4.57576 -1.63862e-14 0)
(4.57576 -1.79864e-14 0)
(4.57576 -1.53627e-14 0)
(4.57576 4.58746e-15 0)
(4.57576 2.36708e-16 0)
(4.57576 -1.97601e-14 0)
(4.57576 1.947e-15 0)
(4.57576 3.80832e-14 0)
(4.57576 5.31825e-14 0)
(4.57576 5.39126e-14 0)
(4.57576 4.68881e-14 0)
(4.57576 1.86732e-14 0)
(4.57576 -4.72815e-14 0)
(4.57576 -2.45909e-14 0)
(4.57576 5.5883e-14 0)
(4.57576 1.5498e-13 0)
(4.57576 1.57729e-13 0)
(4.57576 -9.0649e-15 0)
(4.57576 -2.38008e-14 0)
(4.57576 -8.59815e-15 0)
(4.57576 1.08619e-14 0)
(4.57576 -1.3309e-14 0)
(4.57576 -4.33708e-14 0)
(4.57576 -9.31961e-14 0)
(4.57576 -1.67399e-13 0)
(4.57576 -1.72873e-13 0)
(4.57576 -1.47876e-13 0)
(4.57576 -3.13054e-14 0)
(4.57576 -9.63833e-15 0)
(4.57576 -1.46692e-15 0)
(4.57576 1.37057e-14 0)
(4.57576 -4.85617e-14 0)
(4.57576 -7.07822e-14 0)
(4.57576 -1.19664e-13 0)
(4.57576 -1.49436e-13 0)
(4.57576 -7.42728e-14 0)
(4.57576 -4.81817e-14 0)
(4.57576 -2.5091e-14 0)
(4.57576 3.03819e-14 0)
(4.57576 6.9472e-14 0)
(4.57576 7.56197e-14 0)
(4.57576 4.24873e-14 0)
(4.57576 4.10404e-15 0)
(4.57576 -5.10755e-15 0)
(4.57576 1.02451e-14 0)
(4.57576 3.86633e-14 0)
(4.57576 3.878e-14 0)
(4.57576 2.21438e-14 0)
(4.57576 1.58194e-14 0)
(4.57576 4.00402e-15 0)
(4.57576 -2.92917e-14 0)
(4.57576 -3.32057e-14 0)
(4.57576 1.7503e-15 0)
(4.57576 1.3257e-13 0)
(4.57576 1.89469e-13 0)
(4.57576 2.17948e-13 0)
(4.57576 1.27479e-13 0)
(4.57576 4.98753e-15 0)
(4.57576 1.7303e-15 0)
(4.57576 -6.16773e-15 0)
(4.57576 -7.61665e-14 0)
(4.57576 -1.02174e-13 0)
(4.57576 -4.97853e-14 0)
(4.57576 -3.95268e-14 0)
(4.57576 -2.85049e-14 0)
(4.57576 -1.15787e-14 0)
(4.57576 -1.71563e-14 0)
(4.57576 9.24993e-14 0)
(4.57576 9.60566e-14 0)
(4.57576 8.82719e-14 0)
(4.57576 3.36191e-14 0)
(4.57576 -7.65032e-14 0)
(4.57576 -9.58699e-14 0)
(4.57576 -9.03756e-14 0)
(4.57576 -1.06955e-13 0)
(4.57576 -1.3334e-13 0)
(4.57576 -1.10606e-13 0)
(4.57576 -5.55496e-14 0)
(4.57576 2.76248e-14 0)
(4.57576 7.49596e-14 0)
(4.57576 8.44746e-14 0)
(4.57576 4.05903e-14 0)
(4.57576 -5.99437e-15 0)
(4.57576 -2.13704e-14 0)
(4.57576 -3.27323e-14 0)
(4.57576 -2.61512e-14 0)
(4.57576 -5.33992e-14 0)
(4.57576 -4.32075e-14 0)
(4.57576 -1.75997e-14 0)
(4.57576 2.03835e-14 0)
(4.57576 8.05039e-14 0)
(4.57576 1.04738e-13 0)
(4.57576 1.5342e-13 0)
(4.57576 1.96281e-13 0)
(4.57576 1.44662e-13 0)
(4.57576 3.43926e-14 0)
(4.57576 -2.9363e-14 0)
(4.57576 1.7453e-14 0)
(4.57576 4.4471e-14 0)
(4.57576 -6.85118e-15 0)
(4.57576 -8.26076e-14 0)
(4.57576 -6.80684e-14 0)
(4.57576 -5.83968e-14 0)
(4.57576 -2.93684e-14 0)
(4.57576 -1.03251e-14 0)
(4.57576 -3.79399e-15 0)
(4.57576 1.19187e-14 0)
(4.57576 3.93968e-14 0)
(4.57576 5.62364e-14 0)
(4.57576 -1.51359e-14 0)
(4.57576 -9.39096e-14 0)
(4.57576 -1.58621e-13 0)
(4.57576 -2.21972e-13 0)
(4.57576 -1.92013e-13 0)
(4.57576 -1.54337e-13 0)
(4.57576 -1.04541e-13 0)
(4.57576 -5.76333e-14 0)
(4.57576 3.84066e-15 0)
(4.57576 1.39924e-14 0)
(4.57576 -2.46909e-14 0)
(4.57576 -2.39708e-14 0)
(4.57576 2.68913e-14 0)
(4.57576 7.72833e-14 0)
(4.57576 -1.51493e-14 0)
(4.57576 -1.56864e-13 0)
(4.57576 -1.61395e-13 0)
(4.57576 -1.46812e-13 0)
(4.57576 -1.7201e-13 0)
(4.57576 -1.11716e-13 0)
(4.57576 -2.74214e-14 0)
(4.57576 6.85252e-14 0)
(4.57576 1.17274e-13 0)
(4.57576 1.02758e-13 0)
(4.57576 7.76767e-14 0)
(4.57576 6.36877e-14 0)
(4.57576 -2.3004e-16 0)
(4.57576 -3.83453e-14 0)
(4.57576 -7.5013e-16 0)
(4.57576 3.48727e-15 0)
(4.57576 -1.5246e-14 0)
(4.57576 -2.34007e-14 0)
(4.57576 -1.75097e-14 0)
(4.57576 1.01418e-14 0)
(4.57576 3.36125e-14 0)
(4.57576 1.65762e-14 0)
(4.57576 -3.92068e-14 0)
(4.57576 -7.18024e-14 0)
(4.57576 -1.01294e-13 0)
(4.57576 -4.21039e-14 0)
(4.57576 -3.35491e-14 0)
(4.57576 -4.8335e-14 0)
(4.57576 -4.65014e-14 0)
(4.57576 -8.03572e-14 0)
(4.57576 -7.08689e-14 0)
(4.57576 -4.46044e-14 0)
(4.57576 2.11937e-14 0)
(4.57576 5.72466e-14 0)
(4.57576 3.74898e-14 0)
(4.57576 -1.00064e-13 0)
(4.57576 -1.12803e-13 0)
(4.57576 -1.18634e-13 0)
(4.57576 -9.54498e-14 0)
(4.57576 -6.84251e-14 0)
(4.57576 -7.58964e-14 0)
(4.57576 -1.36364e-13 0)
(4.57576 -1.48172e-13 0)
(4.57576 -1.25915e-13 0)
(4.57576 -1.7622e-13 0)
(4.57576 -1.06538e-13 0)
(4.57576 -3.56528e-14 0)
(4.57576 2.74047e-14 0)
(4.57576 5.88735e-14 0)
(4.57576 1.60394e-14 0)
(4.57576 -5.53429e-16 0)
(4.57576 3.64196e-14 0)
(4.57576 1.45612e-13 0)
(4.57576 1.92299e-13 0)
(4.57576 -1.30856e-14 0)
(4.57576 -1.88666e-14 0)
(4.57576 2.79982e-14 0)
(4.57576 5.9757e-14 0)
(4.57576 6.98054e-14 0)
(4.57576 6.43044e-14 0)
(4.57576 4.98719e-14 0)
(4.57576 5.06187e-14 0)
(4.57576 -2.28506e-14 0)
(4.57576 -1.17307e-13 0)
(4.57576 -1.12903e-13 0)
(4.57576 -1.08132e-13 0)
(4.57576 -1.06652e-14 0)
(4.57576 1.98768e-14 0)
(4.57576 1.04941e-13 0)
(4.57576 1.51763e-13 0)
(4.57576 1.75347e-13 0)
(4.57576 1.80324e-13 0)
(4.57576 1.80768e-13 0)
(4.57576 7.44362e-14 0)
(4.57576 -1.70496e-14 0)
(4.57576 -5.57763e-14 0)
(4.57576 -9.92738e-14 0)
(4.57576 -1.25508e-13 0)
(4.57576 -1.26525e-13 0)
(4.57576 -1.45949e-13 0)
(4.57576 -1.13373e-13 0)
(4.57576 4.68848e-14 0)
(4.57576 7.06589e-14 0)
(4.57576 2.5321e-14 0)
(4.57576 2.61979e-14 0)
(4.57576 1.02808e-13 0)
(4.57576 1.39577e-13 0)
(4.57576 1.05075e-13 0)
(4.57576 3.73865e-14 0)
(4.57576 2.62545e-14 0)
(4.57576 -2.04069e-14 0)
(4.57576 -6.77784e-15 0)
(4.57576 6.70516e-14 0)
(4.57576 1.0141e-13 0)
(4.57576 -1.75697e-15 0)
(4.57576 9.35828e-15 0)
(4.57576 3.27957e-14 0)
(4.57576 9.8617e-14 0)
(4.57576 1.22541e-13 0)
(4.57576 1.04995e-13 0)
(4.57576 4.53345e-14 0)
(4.57576 3.44293e-14 0)
(4.57576 7.37094e-14 0)
(4.57576 5.94669e-14 0)
(4.57576 1.66195e-14 0)
(4.57576 -4.66014e-14 0)
(4.57576 -4.23873e-14 0)
(4.57576 9.631e-14 0)
(4.57576 2.64679e-13 0)
(4.57576 3.70607e-13 0)
(4.57576 3.72608e-13 0)
(4.57576 2.57948e-13 0)
(4.57576 1.95144e-13 0)
(4.57576 1.27595e-13 0)
(4.57576 5.38226e-14 0)
(4.57576 2.20038e-15 0)
(4.57576 -8.48313e-14 0)
(4.57576 -1.29022e-14 0)
(4.57576 8.62916e-14 0)
(4.57576 7.06422e-14 0)
(4.57576 5.36159e-14 0)
(4.57576 1.10109e-13 0)
(4.57576 8.10273e-14 0)
(4.57576 2.98352e-14 0)
(4.57576 6.61414e-14 0)
(4.57576 9.52564e-14 0)
(4.57576 1.25338e-13 0)
(4.57576 1.20404e-13 0)
(4.57576 -2.61012e-14 0)
(4.57576 -1.51293e-14 0)
(4.57576 -2.62145e-14 0)
(4.57576 -9.22659e-14 0)
(4.57576 -1.17234e-13 0)
(4.57576 -1.00867e-13 0)
(4.57576 2.58278e-14 0)
(4.57576 3.32457e-14 0)
(4.57576 5.41894e-14 0)
(4.57576 6.80351e-14 0)
(4.57576 2.53877e-14 0)
(4.57576 -1.80464e-14 0)
(4.57576 -1.93533e-14 0)
(4.57576 1.82898e-14 0)
(4.57576 5.18056e-14 0)
(4.57576 7.78701e-14 0)
(4.57576 6.73716e-14 0)
(4.57576 7.77968e-14 0)
(4.57576 1.1614e-13 0)
(4.57576 1.3693e-13 0)
(4.57576 1.78914e-13 0)
(4.57576 2.84539e-13 0)
(4.57576 3.15021e-13 0)
(4.57576 2.73711e-13 0)
(4.57576 2.03322e-13 0)
(4.57576 1.16287e-13 0)
(4.57576 4.93619e-14 0)
(4.57576 3.44226e-14 0)
(4.57576 5.53962e-14 0)
(4.57576 7.22258e-14 0)
(4.57576 1.23865e-13 0)
(4.57576 1.53793e-13 0)
(4.57576 2.00665e-13 0)
(4.57576 1.5671e-13 0)
(4.57576 -1.30356e-15 0)
(4.57576 -1.45502e-13 0)
(4.57576 -1.15143e-13 0)
(4.57576 -3.58362e-14 0)
(4.57576 -1.06152e-14 0)
(4.57576 -1.48359e-15 0)
(4.57576 3.76065e-15 0)
(4.57576 -1.49459e-14 0)
(4.57576 -2.47043e-15 0)
(4.57576 -1.65795e-14 0)
(4.57576 -9.19159e-14 0)
(4.57576 -8.9862e-14 0)
(4.57576 -1.36057e-14 0)
(4.57576 -3.40625e-14 0)
(4.57576 -1.77164e-14 0)
(4.57576 -3.00852e-14 0)
(4.57576 -3.14054e-14 0)
(4.57576 -4.44043e-14 0)
(4.57576 -6.48112e-15 0)
(4.57576 5.53862e-14 0)
(4.57576 4.04403e-14 0)
(4.57576 3.79065e-14 0)
(4.57576 1.04161e-13 0)
(4.57576 1.24735e-13 0)
(4.57576 1.51486e-13 0)
(4.57576 1.26052e-13 0)
(4.57576 7.49029e-14 0)
(4.57576 1.03231e-13 0)
(4.57576 1.09416e-13 0)
(4.57576 1.19741e-13 0)
(4.57576 1.28812e-13 0)
(4.57576 7.26492e-14 0)
(4.57576 -3.90067e-14 0)
(4.57576 -3.41192e-14 0)
(4.57576 -2.83616e-14 0)
(4.57576 -8.30943e-14 0)
(4.57576 -4.75249e-14 0)
(4.57576 -4.68081e-15 0)
(4.57576 6.29975e-14 0)
(4.57576 9.72501e-14 0)
(4.57576 9.52298e-14 0)
(4.57576 8.18141e-14 0)
(4.57576 4.42476e-14 0)
(4.57576 7.66432e-14 0)
(4.57576 6.86885e-14 0)
(4.57576 -4.8005e-14 0)
(4.57576 -3.81599e-14 0)
(4.57576 -5.69832e-14 0)
(4.57576 -6.04838e-14 0)
(4.57576 -7.00454e-14 0)
(4.57576 -1.37857e-14 0)
(4.57576 3.86816e-14 0)
(4.57576 3.18055e-15 0)
(4.57576 6.09105e-15 0)
(4.57576 -2.30106e-14 0)
(4.57576 -2.42042e-14 0)
(4.57576 -2.58578e-14 0)
(4.57576 -2.59712e-14 0)
(4.57576 1.1512e-14 0)
(4.57576 9.75168e-15 0)
(4.57576 3.4906e-15 0)
(4.57576 7.19191e-14 0)
(4.57576 1.60808e-13 0)
(4.57576 1.49853e-13 0)
(4.57576 1.31369e-13 0)
(4.57576 -4.43577e-14 0)
(4.57576 -1.15517e-13 0)
(4.57576 -1.3426e-13 0)
(4.57576 -8.53047e-14 0)
(4.57576 -1.29822e-14 0)
(4.57576 5.83434e-15 0)
(4.57576 -2.58178e-14 0)
(4.57576 -1.80464e-14 0)
(4.57576 -4.87884e-14 0)
(4.57576 -6.14306e-14 0)
(4.57576 -9.08824e-14 0)
(4.57576 -8.30143e-14 0)
(4.57576 -8.10907e-14 0)
(4.57576 -1.06252e-13 0)
(4.57576 -4.8475e-15 0)
(4.57576 1.27212e-13 0)
(4.57576 1.31689e-13 0)
(4.57576 8.32277e-14 0)
(4.57576 6.39577e-14 0)
(4.57576 1.15653e-13 0)
(4.57576 9.89037e-14 0)
(4.57576 2.38108e-14 0)
(4.57576 -3.14888e-14 0)
(4.57576 -2.76281e-14 0)
(4.57576 -3.34491e-14 0)
(4.57576 -3.52894e-14 0)
(4.57576 -1.23549e-14 0)
(4.57576 5.72432e-15 0)
(4.57576 8.52481e-15 0)
(4.57576 -1.35557e-14 0)
(4.57576 -1.89699e-14 0)
(4.57576 -4.45877e-14 0)
(4.57576 -4.66947e-14 0)
(4.57576 -1.85499e-14 0)
(4.57576 -3.00785e-14 0)
(4.57576 -3.01885e-14 0)
(4.57576 6.09172e-14 0)
(4.57576 1.14453e-13 0)
(4.57576 1.61741e-13 0)
(4.57576 2.79348e-14 0)
(4.57576 -5.87435e-14 0)
(4.57576 -6.5798e-14 0)
(4.57576 -4.95019e-14 0)
(4.57576 -2.73814e-14 0)
(4.57576 -2.46809e-14 0)
(4.57576 -9.0649e-15 0)
(4.57576 2.92917e-14 0)
(4.57576 5.84301e-14 0)
(4.57576 1.03064e-13 0)
(4.57576 1.25102e-13 0)
(4.57576 1.31816e-13 0)
(4.57576 8.8742e-14 0)
(4.57576 3.99869e-14 0)
(4.57576 2.58045e-15 0)
(4.57576 5.11355e-14 0)
(4.57576 6.00237e-14 0)
(4.57576 1.02548e-13 0)
(4.57576 1.05885e-13 0)
(4.57576 1.12293e-13 0)
(4.57576 1.3504e-13 0)
(4.57576 1.24525e-13 0)
(4.57576 5.11022e-14 0)
(4.57576 2.45142e-14 0)
(4.57576 2.16337e-14 0)
(4.57576 5.54062e-14 0)
(4.57576 8.19442e-14 0)
(4.57576 4.21573e-14 0)
(4.57576 -2.63479e-14 0)
(4.57576 -2.7018e-14 0)
(4.57576 -9.03823e-15 0)
(4.57576 3.33791e-14 0)
(4.57576 6.90419e-14 0)
(4.57576 7.53663e-14 0)
(4.57576 6.99854e-14 0)
(4.57576 8.14041e-14 0)
(4.57576 1.19927e-13 0)
(4.57576 1.62648e-13 0)
(4.57576 1.85602e-13 0)
(4.57576 1.07205e-13 0)
(4.57576 7.66299e-14 0)
(4.57576 8.65649e-14 0)
(4.57576 5.45528e-14 0)
(4.57576 1.76631e-14 0)
(4.57576 -6.94787e-15 0)
(4.57576 -1.78264e-14 0)
(4.57576 2.16371e-14 0)
(4.57576 2.81982e-14 0)
(4.57576 3.02086e-14 0)
(4.57576 4.19906e-14 0)
(4.57576 3.48427e-14 0)
(4.57576 5.2179e-14 0)
(4.57576 3.31524e-14 0)
(4.57576 3.0772e-15 0)
(4.57576 6.7655e-14 0)
(4.57576 9.73935e-14 0)
(4.57576 1.1596e-13 0)
(4.57576 1.75814e-13 0)
(4.57576 2.13297e-13 0)
(4.57576 1.33403e-13 0)
(4.57576 1.5345e-13 0)
(4.57576 1.88026e-13 0)
(4.57576 2.00201e-13 0)
(4.57576 1.81528e-13 0)
(4.57576 1.84158e-13 0)
(4.57576 2.01688e-13 0)
(4.57576 2.27979e-13 0)
(4.57576 2.03919e-13 0)
(4.57576 1.73063e-14 0)
(4.57576 4.98619e-14 0)
(4.57576 6.48812e-14 0)
(4.57576 7.02221e-14 0)
(4.57576 8.01605e-14 0)
(4.57576 1.28852e-13 0)
(4.57576 1.41024e-13 0)
(4.57576 1.23101e-13 0)
(4.57576 1.17437e-13 0)
(4.57576 9.60266e-14 0)
(4.57576 5.86801e-14 0)
(4.57576 3.12454e-14 0)
(4.57576 4.12838e-14 0)
(4.57576 4.53945e-14 0)
(4.57576 -7.48463e-15 0)
(4.57576 -2.98685e-14 0)
(4.57576 -2.53977e-14 0)
(4.57576 -2.23605e-14 0)
(4.57576 -4.51545e-14 0)
(4.57576 -7.64765e-14 0)
(4.57576 -7.1309e-14 0)
(4.57576 -9.11357e-14 0)
(4.57576 -9.2876e-14 0)
(4.57576 -1.05238e-13 0)
(4.57576 -1.04751e-13 0)
(4.57576 -8.54814e-14 0)
(4.57576 1.83698e-14 0)
(4.57576 1.45225e-13 0)
(4.57576 1.76971e-13 0)
(4.57576 2.07229e-13 0)
(4.57576 2.3448e-13 0)
(4.57576 2.12063e-13 0)
(4.57576 1.69333e-13 0)
(4.57576 1.53436e-13 0)
(4.57576 1.53093e-13 0)
(4.57576 1.80615e-13 0)
(4.57576 2.28163e-13 0)
(4.57576 2.22942e-13 0)
(4.57576 2.68283e-13 0)
(4.57576 1.82005e-13 0)
(4.57576 6.31776e-15 0)
(4.57576 6.66782e-18 0)
(4.57576 -2.28073e-14 0)
(4.57576 -7.64165e-14 0)
(4.57576 -6.59381e-14 0)
(4.57576 -4.20939e-14 0)
(4.57576 2.84582e-14 0)
(4.57576 4.40509e-14 0)
(4.57576 5.33759e-15 0)
(4.57576 -6.22674e-14 0)
(4.57576 -1.01287e-13 0)
(4.57576 -9.63333e-14 0)
(4.57576 -6.85918e-14 0)
(4.57576 -2.75714e-14 0)
(4.57576 -1.71163e-14 0)
(4.57576 3.6583e-14 0)
(4.57576 5.02453e-14 0)
(4.57576 3.27957e-14 0)
(4.57576 -3.89734e-15 0)
(4.57576 -6.5778e-15 0)
(4.57576 3.76865e-14 0)
(4.57576 -6.87452e-15 0)
(4.57576 -5.35626e-14 0)
(4.57576 -8.95121e-14 0)
(4.57576 -7.18324e-14 0)
(4.57576 1.68162e-14 0)
(4.57576 1.37444e-13 0)
(4.57576 1.49889e-13 0)
(4.57576 1.46365e-13 0)
(4.57576 1.96167e-13 0)
(4.57576 2.06699e-13 0)
(4.57576 1.77424e-13 0)
(4.57576 9.61299e-14 0)
(4.57576 8.97255e-14 0)
(4.57576 1.02711e-13 0)
(4.57576 1.1352e-13 0)
(4.57576 1.35613e-13 0)
(4.57576 1.25842e-13 0)
(4.57576 2.34541e-14 0)
(4.57576 -3.05749e-14 0)
(4.57576 -2.09369e-15 0)
(4.57576 -3.61462e-14 0)
(4.57576 -3.53594e-14 0)
(4.57576 -5.13822e-14 0)
(4.57576 -7.68399e-14 0)
(4.57576 -1.27889e-13 0)
(4.57576 -1.18971e-13 0)
(4.57576 -6.52413e-14 0)
(4.57576 7.30126e-16 0)
(4.57576 -4.16939e-14 0)
(4.57576 -1.04918e-13 0)
(4.57576 -1.25048e-13 0)
(4.57576 -1.39434e-13 0)
(4.57576 -4.56245e-14 0)
(4.57576 2.35641e-14 0)
(4.57576 5.98903e-14 0)
(4.57576 9.37295e-14 0)
(4.57576 1.19404e-13 0)
(4.57576 6.27575e-14 0)
(4.57576 6.08772e-14 0)
(4.57576 2.53144e-14 0)
(4.57576 -2.97318e-14 0)
(4.57576 -1.146e-13 0)
(4.57576 -1.36457e-13 0)
(4.57576 -6.70549e-14 0)
(4.57576 -3.32324e-14 0)
(4.57576 -2.55211e-14 0)
(4.57576 2.01368e-14 0)
(4.57576 5.21523e-14 0)
(4.57576 5.73866e-14 0)
(4.57576 8.72284e-14 0)
(4.57576 9.26627e-14 0)
(4.57576 7.94204e-14 0)
(4.57576 4.12971e-14 0)
(4.57576 4.18739e-14 0)
(4.57576 4.52578e-14 0)
(4.57576 5.56563e-14 0)
(4.57576 1.20237e-13 0)
(4.57576 8.97422e-14 0)
(4.57576 6.4895e-14 0)
(4.57576 1.58427e-14 0)
(4.57576 9.60499e-15 0)
(4.57576 4.71848e-14 0)
(4.57576 6.70749e-14 0)
(4.57576 4.12038e-14 0)
(4.57576 -4.49744e-15 0)
(4.57576 -1.949e-14 0)
(4.57576 -1.46559e-14 0)
(4.57576 1.23021e-15 0)
(4.57576 1.38324e-14 0)
(4.57576 -9.12491e-15 0)
(4.57576 6.88786e-15 0)
(4.57576 4.14238e-14 0)
(4.57576 3.13087e-14 0)
(4.57576 8.09473e-15 0)
(4.57576 -1.69529e-14 0)
(4.57576 -5.39126e-14 0)
(4.57576 -4.96986e-14 0)
(4.57576 -4.51978e-14 0)
(4.57576 -3.00852e-14 0)
(4.57576 -3.44893e-14 0)
(4.57576 -8.16141e-14 0)
(4.57576 -9.50397e-14 0)
(4.57576 -1.183e-13 0)
(4.57576 -9.18325e-14 0)
(4.57576 -2.86716e-14 0)
(4.57576 -2.34074e-14 0)
(4.57576 -7.75501e-14 0)
(4.57576 -9.79903e-14 0)
(4.57576 -7.27926e-14 0)
(4.57576 -3.59795e-14 0)
(4.57576 1.16353e-14 0)
(4.57576 5.04387e-14 0)
(4.57576 1.97301e-14 0)
(4.57576 -4.74682e-14 0)
(4.57576 -4.90851e-14 0)
(4.57576 -3.88e-14 0)
(4.57576 -1.20054e-14 0)
(4.57576 7.49163e-14 0)
(4.57576 8.92127e-14 0)
(4.57576 -9.48164e-15 0)
(4.57576 2.51143e-14 0)
(4.57576 4.93685e-14 0)
(4.57576 3.77098e-14 0)
(4.57576 3.20955e-14 0)
(4.57576 4.93719e-14 0)
(4.57576 6.82318e-14 0)
(4.57576 6.37543e-14 0)
(4.57576 4.25907e-14 0)
(4.57576 3.68064e-14 0)
(4.57576 7.5303e-14 0)
(4.57576 1.03618e-13 0)
(4.57576 1.00147e-13 0)
(4.57576 -6.36777e-15 0)
(4.57576 -8.39345e-14 0)
(4.57576 -6.79617e-14 0)
(4.57576 -1.03325e-13 0)
(4.57576 -1.71003e-13 0)
(4.57576 -1.83188e-13 0)
(4.57576 -1.57881e-13 0)
(4.57576 -1.19984e-13 0)
(4.57576 -8.36644e-14 0)
(4.57576 -2.21872e-14 0)
(4.57576 3.0772e-15 0)
(4.57576 8.74484e-15 0)
(4.57576 -4.47077e-15 0)
(4.57576 -6.31442e-15 0)
(4.57576 -5.0342e-14 0)
(4.57576 -1.3289e-13 0)
(4.57576 -1.77721e-13 0)
(4.57576 -1.57931e-13 0)
(4.57576 -3.68197e-14 0)
(4.57576 3.42726e-14 0)
(4.57576 9.42229e-14 0)
(4.57576 1.01428e-13 0)
(4.57576 9.20559e-14 0)
(4.57576 1.1535e-13 0)
(4.57576 4.98386e-14 0)
(4.57576 9.2516e-15 0)
(4.57576 8.24264e-15 0)
(4.57576 -6.14439e-15 0)
(4.57576 2.80048e-16 0)
(4.57576 -2.82449e-14 0)
(4.57576 -1.7193e-14 0)
(4.57576 -1.67562e-14 0)
(4.57576 -2.5331e-14 0)
(4.57576 -4.09871e-14 0)
(4.57576 1.76697e-15 0)
(4.57576 -1.64362e-14 0)
(4.57576 -5.29091e-14 0)
(4.57576 -1.29289e-14 0)
(4.57576 1.1692e-14 0)
(4.57576 1.01618e-14 0)
(4.57576 -7.59898e-14 0)
(4.57576 -9.68301e-14 0)
(4.57576 -3.74798e-14 0)
(4.57576 1.23455e-14 0)
(4.57576 -5.93469e-14 0)
(4.57576 -9.42129e-14 0)
(4.57576 -8.72551e-14 0)
(4.57576 -6.88886e-14 0)
(4.57576 -5.84134e-14 0)
(4.57576 -4.78149e-14 0)
(4.57576 4.62747e-15 0)
(4.57576 3.6813e-14 0)
(4.57576 1.42058e-14 0)
(4.57576 -4.94985e-14 0)
(4.57576 -1.38094e-13 0)
(4.57576 -1.53233e-13 0)
(4.57576 -1.7131e-13 0)
(4.57576 -1.9419e-13 0)
(4.57576 -1.49349e-13 0)
(4.57576 -1.13853e-14 0)
(4.57576 6.81451e-14 0)
(4.57576 1.25598e-13 0)
(4.57576 1.3243e-13 0)
(4.57576 6.59681e-14 0)
(4.57576 1.51293e-14 0)
(4.57576 3.62396e-15 0)
(4.57576 1.09608e-14 0)
(4.57576 1.66629e-14 0)
(4.57576 -1.59361e-15 0)
(4.57576 -1.66462e-14 0)
(4.57576 8.98822e-15 0)
(4.57576 3.59895e-14 0)
(4.57576 1.24121e-14 0)
(4.57576 -7.49329e-14 0)
(4.57576 -9.60833e-14 0)
(4.57576 -9.81036e-14 0)
(4.57576 -1.15527e-13 0)
(4.57576 -1.18287e-13 0)
(4.57576 -1.22331e-13 0)
(4.57576 -7.92537e-14 0)
(4.57576 2.18038e-15 0)
(4.57576 1.68262e-14 0)
(4.57576 -7.51796e-15 0)
(4.57576 4.98386e-14 0)
(4.57576 7.55064e-14 0)
(4.57576 9.02423e-14 0)
(4.57576 8.50547e-14 0)
(4.57576 6.32676e-14 0)
(4.57576 3.07253e-14 0)
(4.57576 2.97585e-14 0)
(4.57576 7.28492e-14 0)
(4.57576 9.07423e-14 0)
(4.57576 1.16447e-13 0)
(4.57576 1.11119e-13 0)
(4.57576 6.24708e-14 0)
(4.57576 -5.27058e-14 0)
(4.57576 -3.57328e-14 0)
(4.57576 -3.43493e-14 0)
(4.57576 -6.3711e-14 0)
(4.57576 -2.34807e-14 0)
(4.57576 5.19423e-15 0)
(4.57576 4.18139e-14 0)
(4.57576 2.47643e-14 0)
(4.57576 -4.4371e-14 0)
(4.57576 -8.96188e-14 0)
(4.57576 -3.71564e-14 0)
(4.57576 -7.48439e-15 0)
(4.57576 -1.65229e-14 0)
(4.57576 -2.20338e-14 0)
(4.57576 -2.54444e-14 0)
(4.57576 -3.16855e-14 0)
(4.57576 -1.94134e-14 0)
(4.57576 7.47462e-15 0)
(4.57576 -1.72563e-14 0)
(4.57576 -5.9887e-14 0)
(4.57576 -6.47478e-14 0)
(4.57576 -5.13822e-14 0)
(4.57576 -6.44845e-14 0)
(4.57576 -7.85169e-14 0)
(4.57576 -4.61046e-14 0)
(4.57576 7.28426e-14 0)
(4.57576 9.20326e-14 0)
(4.57576 4.56712e-14 0)
(4.57576 1.85865e-14 0)
(4.57576 2.1367e-14 0)
(4.57576 4.07237e-14 0)
(4.57576 3.33458e-14 0)
(4.57576 5.08088e-15 0)
(4.57576 1.81998e-14 0)
(4.57576 3.72198e-14 0)
(4.57576 5.46461e-14 0)
(4.57576 1.43785e-13 0)
(4.57576 2.06682e-13 0)
(4.57576 2.30386e-13 0)
(4.57576 1.26275e-13 0)
(4.57576 -4.0567e-14 0)
(4.57576 -5.62664e-14 0)
(4.57576 -3.83633e-14 0)
(4.57576 -3.93601e-14 0)
(4.57576 -6.62181e-14 0)
(4.57576 -7.19491e-14 0)
(4.57576 -9.672e-14 0)
(4.57576 -9.95339e-14 0)
(4.57576 -9.15025e-14 0)
(4.57576 -9.18125e-14 0)
(4.57576 -7.22858e-14 0)
(4.57576 -7.52803e-14 0)
(4.57576 -2.07236e-14 0)
(4.57576 -2.86149e-14 0)
(4.57576 -4.93185e-14 0)
(4.57576 -3.60529e-14 0)
(4.57576 -4.00469e-14 0)
(4.57576 -3.96035e-14 0)
(4.57576 -3.58729e-15 0)
(4.57576 -4.19739e-15 0)
(4.57576 -4.01103e-14 0)
(4.57576 -1.85965e-14 0)
(4.57576 1.63695e-15 0)
(4.57576 -3.77065e-15 0)
(4.57576 3.93201e-14 0)
(4.57576 7.90537e-14 0)
(4.57576 1.09229e-13 0)
(4.57576 6.21141e-14 0)
(4.57576 3.39159e-14 0)
(4.57576 -9.04156e-15 0)
(4.57576 -5.96936e-14 0)
(4.57576 -1.00507e-13 0)
(4.57576 -1.23218e-13 0)
(4.57576 -1.08452e-13 0)
(4.57576 -9.2776e-14 0)
(4.57576 6.16773e-16 0)
(4.57576 9.30994e-14 0)
(4.57576 1.51003e-13 0)
(4.57576 9.68167e-14 0)
(4.57576 3.72164e-14 0)
(4.57576 -7.04788e-15 0)
(4.57576 -8.00872e-14 0)
(4.57576 -1.82995e-13 0)
(4.57576 -1.89593e-13 0)
(4.57576 -1.78738e-13 0)
(4.57576 -1.64752e-13 0)
(4.57576 -1.64432e-13 0)
(4.57576 -1.53927e-13 0)
(4.57576 -1.02588e-13 0)
(4.57576 -1.08825e-13 0)
(4.57576 -1.27969e-13 0)
(4.57576 -1.01187e-13 0)
(4.57576 3.1142e-14 0)
(4.57576 7.37694e-14 0)
(4.57576 5.29691e-14 0)
(4.57576 3.4896e-14 0)
(4.57576 1.66695e-14 0)
(4.57576 1.27155e-14 0)
(4.57576 4.52645e-14 0)
(4.57576 7.67599e-14 0)
(4.57576 2.84282e-14 0)
(4.57576 -8.87687e-14 0)
(4.57576 -1.46235e-13 0)
(4.57576 -1.22768e-13 0)
(4.57576 -5.03654e-14 0)
(4.57576 -4.01436e-14 0)
(4.57576 -6.60147e-14 0)
(4.57576 -8.4768e-14 0)
(4.57576 -8.52414e-14 0)
(4.57576 -8.9062e-14 0)
(4.57576 -9.62033e-14 0)
(4.57576 -1.13863e-13 0)
(4.57576 -1.32286e-13 0)
(4.57576 -1.74113e-13 0)
(4.57576 -1.3646e-13 0)
(4.57576 -9.15091e-14 0)
(4.57576 -5.57196e-14 0)
(4.57576 -7.83235e-14 0)
(4.57576 -1.48336e-13 0)
(4.57576 -1.27445e-13 0)
(4.57576 -4.86384e-14 0)
(4.57576 -5.40827e-14 0)
(4.57576 -1.07232e-13 0)
(4.57576 -1.24388e-13 0)
(4.57576 -1.10692e-13 0)
(4.57576 -1.04941e-13 0)
(4.57576 -9.37995e-14 0)
(4.57576 -8.73818e-14 0)
(4.57576 -8.12707e-14 0)
(4.57576 -9.8307e-14 0)
(4.57576 -1.36637e-13 0)
(4.57576 -1.18913e-13 0)
(4.57576 1.65495e-14 0)
(4.57576 1.42691e-14 0)
(4.57576 5.48495e-14 0)
(4.57576 3.81066e-14 0)
(4.57576 5.93236e-14 0)
(4.57576 1.00551e-13 0)
(4.57576 1.19627e-13 0)
(4.57576 6.48912e-14 0)
(4.57576 1.78898e-14 0)
(4.57576 -4.0767e-14 0)
(4.57576 -6.40177e-14 0)
(4.57576 -3.93168e-14 0)
(4.57576 -1.26689e-16 0)
(4.57576 -5.88135e-14 0)
(4.57576 -1.39364e-13 0)
(4.57576 -1.57647e-13 0)
(4.57576 -1.42161e-13 0)
(4.57576 -1.33623e-13 0)
(4.57576 -1.1697e-13 0)
(4.57576 -1.05482e-13 0)
(4.57576 -9.56465e-14 0)
(4.57576 -5.84601e-14 0)
(4.57576 -3.79532e-14 0)
(4.57576 -1.08965e-13 0)
(4.57576 -1.41594e-13 0)
(4.57576 -1.44348e-13 0)
(4.57576 -1.61188e-13 0)
(4.57576 -1.25298e-13 0)
(4.57576 -9.99039e-14 0)
(4.57576 -1.15433e-13 0)
(4.57576 -1.24942e-13 0)
(4.57576 -1.31123e-13 0)
(4.57576 -1.17004e-13 0)
(4.57576 -1.3789e-14 0)
(4.57576 -4.15738e-15 0)
(4.57576 -6.9212e-15 0)
(4.57576 -6.20574e-14 0)
(4.57576 -1.64075e-13 0)
(4.57576 -2.23325e-13 0)
(4.57576 -2.4304e-13 0)
(4.57576 -2.17638e-14 0)
(4.57576 -1.96501e-14 0)
(4.57576 1.35323e-14 0)
(4.57576 3.39092e-14 0)
(4.57576 3.24189e-14 0)
(4.57576 3.37525e-14 0)
(4.57576 6.68449e-15 0)
(4.57576 -1.5626e-14 0)
(4.57576 -5.10221e-14 0)
(4.57576 5.09288e-14 0)
(4.57576 6.94053e-14 0)
(4.57576 6.64248e-14 0)
(4.57576 4.52545e-14 0)
(4.57576 4.07037e-14 0)
(4.57576 1.45558e-14 0)
(4.57576 1.53193e-14 0)
(4.57576 -2.79948e-14 0)
(4.57576 -1.25555e-14 0)
(4.57576 -8.26809e-15 0)
(4.57576 1.85765e-14 0)
(4.57576 4.54245e-14 0)
(4.57576 8.90287e-14 0)
(4.57576 6.89919e-14 0)
(4.57576 -5.40293e-14 0)
(4.57576 -1.17537e-13 0)
(4.57576 -1.59564e-13 0)
(4.57576 -7.95571e-14 0)
(4.57576 -6.65382e-14 0)
(4.57576 -6.7515e-14 0)
(4.57576 -2.84049e-15 0)
(4.57576 -1.10932e-13 0)
(4.57576 -1.68289e-13 0)
(4.57576 -1.61841e-13 0)
(4.57576 -1.7103e-13 0)
(4.57576 -1.60574e-13 0)
(4.57576 -1.82952e-13 0)
(4.57576 -2.26026e-13 0)
(4.57576 -2.54521e-13 0)
(4.57576 -2.43275e-13 0)
(4.57576 -2.94561e-13 0)
(4.57576 -1.38257e-14 0)
(4.57576 -3.6673e-17 0)
(4.57576 1.99034e-15 0)
(4.57576 -1.1662e-14 0)
(4.57576 -7.87536e-14 0)
(4.57576 -1.05312e-13 0)
(4.57576 -9.22859e-14 0)
(4.57576 -1.87266e-14 0)
(4.57576 3.01219e-14 0)
(4.57576 6.02737e-14 0)
(4.57576 6.59147e-14 0)
(4.57576 4.71548e-14 0)
(4.57576 2.17171e-14 0)
(4.57576 -1.45692e-14 0)
(4.57576 4.17005e-14 0)
(4.57576 5.789e-14 0)
(4.57576 5.26358e-14 0)
(4.57576 1.905e-14 0)
(4.57576 8.66816e-15 0)
(4.57576 5.82667e-14 0)
(4.57576 9.87737e-14 0)
(4.57576 9.99839e-14 0)
(4.57576 2.83416e-14 0)
(4.57576 -4.92618e-14 0)
(4.57576 -1.09349e-13 0)
(4.57576 -1.3677e-13 0)
(4.57576 -2.03152e-13 0)
(4.57576 -2.21725e-13 0)
(4.57576 -1.73873e-13 0)
(4.57576 1.86032e-15 0)
(4.57576 2.40041e-14 0)
(4.57576 7.53463e-16 0)
(4.57576 -1.02051e-14 0)
(4.57576 -1.59501e-13 0)
(4.57576 -3.15531e-13 0)
(4.57576 -3.65506e-13 0)
(4.57576 -3.38195e-13 0)
(4.57576 -2.76341e-13 0)
(4.57576 -1.85389e-13 0)
(4.57576 -1.36928e-13 0)
(4.57576 -2.49043e-15 0)
(4.57576 -1.88366e-15 0)
(4.57576 -4.86751e-15 0)
(4.57576 -2.26606e-14 0)
(4.57576 -4.43043e-14 0)
(4.57576 -6.29375e-14 0)
(4.57576 -1.74397e-14 0)
(4.57576 6.30209e-14 0)
(4.57576 9.20392e-14 0)
(4.57576 5.90269e-14 0)
(4.57576 6.07138e-14 0)
(4.57576 7.13523e-14 0)
(4.57576 1.81298e-14 0)
(4.57576 -5.764e-14 0)
(4.57576 -7.43862e-14 0)
(4.57576 -6.84552e-14 0)
(4.57576 -5.16723e-14 0)
(4.57576 -4.26274e-14 0)
(4.57576 -5.27524e-14 0)
(4.57576 -1.19381e-13 0)
(4.57576 -1.25938e-13 0)
(4.57576 -1.58474e-13 0)
(4.57576 -2.91517e-14 0)
(4.57576 1.25622e-14 0)
(4.57576 2.51377e-15 0)
(4.57576 -2.14904e-14 0)
(4.57576 -1.47692e-13 0)
(4.57576 -2.36818e-13 0)
(4.57576 -2.29596e-13 0)
(4.57576 -1.08939e-13 0)
(4.57576 6.33476e-14 0)
(4.57576 7.67966e-14 0)
(4.57576 -8.05806e-15 0)