/*--------------------------------*- C++ -*----------------------------------*\
| =========                 |                                                 |
| \\      /  F ield         | OpenFOAM: The Open Source CFD Toolbox           |
|  \\    /   O peration     | Version:  2206                                  |
|   \\  /    A nd           | Website:  www.openfoam.com                      |
|    \\/     M anipulation  |                                                 |
\*---------------------------------------------------------------------------*/
FoamFile
{
    version     2.0;
    format      ascii;
    arch        "LSB;label=32;scalar=64";
    class       volVectorField;
    location    "0.06";
    object      U;
}
// * * * * * * * * * * * * * * * * * * * * * * * * * * * * * * * * * * * * * //

dimensions      [0 1 -1 0 0 0 0];

internalField   nonuniform List<vector> 
75
(
(4.49495 -4.56454e-15 0)
(4.49495 -4.47286e-15 0)
(4.49495 2.97551e-16 0)
(4.49495 2.42959e-16 0)
(4.49495 -5.2009e-16 0)
(4.49495 -5.17173e-16 0)
(4.49495 -6.62781e-15 0)
(4.49495 -5.06087e-15 0)
(4.49495 -6.61198e-15 0)
(4.49495 -6.54225e-15 0)
(4.49495 -9.02989e-15 0)
(4.49495 -8.52147e-15 0)
(4.49495 -1.65162e-14 0)
(4.49495 -3.00739e-14 0)
(4.49495 -2.62722e-14 0)
(4.49495 -4.10488e-15 0)
(4.49495 -8.20142e-16 0)
(4.49495 5.84268e-15 0)
(4.49495 1.62195e-14 0)
(4.49495 8.84564e-15 0)
(4.49495 9.02989e-15 0)
(4.49495 8.46813e-15 0)
(4.49495 1.44608e-14 0)
(4.49495 4.0572e-14 0)
(4.49495 4.79433e-14 0)
(4.45595 0.01216 0)
(4.39817 0.0628546 0)
(4.33612 0.140037 0)
(4.27009 0.238762 0)
(4.20622 0.353195 0)
(4.1502 0.493141 0)
(4.12994 0.605979 0)
(4.12016 0.732558 0)
(4.15136 0.786778 0)
(4.13944 0.928976 0)
(4.4947 -2.65313e-05 0)
(4.49064 0.00683534 0)
(4.4751 0.038733 0)
(4.43776 0.12078 0)
(4.37152 0.276528 0)
(4.27729 0.515349 0)
(4.19885 0.772426 0)
(4.12393 1.03551 0)
(4.10525 1.21434 0)
(4.04616 1.42001 0)
(4.49495 -5.20078e-07 0)
(4.49495 -8.5594e-05 0)
(4.49493 0.00022836 0)
(4.49522 -0.00068331 0)
(4.49393 0.00247246 0)
(4.48817 0.0165794 0)
(4.47344 0.0650908 0)
(4.44764 0.187082 0)
(4.43836 0.323387 0)
(4.41081 0.672152 0)
(4.49495 -1.50097e-07 0)
(4.49495 -2.07451e-06 0)
(4.49495 -2.98571e-06 0)
(4.49496 -3.32125e-05 0)
(4.49497 -8.68165e-05 0)
(4.4949 0.000114909 0)
(4.49492 -0.000181657 0)
(4.49343 0.00574745 0)
(4.49191 0.0179522 0)
(4.47835 0.179506 0)
(4.49495 -1.12309e-09 0)
(4.49495 -5.56502e-09 0)
(4.49495 -3.18337e-07 0)
(4.49495 -1.34803e-06 0)
(4.49495 -1.36157e-05 0)
(4.49495 -9.23759e-06 0)
(4.49495 -3.06315e-05 0)
(4.49494 5.36699e-06 0)
(4.49494 -9.86873e-05 0)
(4.4941 0.00494881 0)
)
;

boundaryField
{
    inlet
    {
        type            fixedValue;
        value           uniform (4.49495 0 0);
    }
    outlet
    {
        type            zeroGradient;
    }
    bottom
    {
        type            symmetryPlane;
    }
    top
    {
        type            symmetryPlane;
    }
    obstacle
    {
        type            slip;
    }
    defaultFaces
    {
        type            empty;
    }
}


// ************************************************************************* //
