/*--------------------------------*- C++ -*----------------------------------*\
| =========                 |                                                 |
| \\      /  F ield         | OpenFOAM: The Open Source CFD Toolbox           |
|  \\    /   O peration     | Version:  2206                                  |
|   \\  /    A nd           | Website:  www.openfoam.com                      |
|    \\/     M anipulation  |                                                 |
\*---------------------------------------------------------------------------*/
FoamFile
{
    version     2.0;
    format      ascii;
    arch        "LSB;label=32;scalar=64";
    class       volVectorField;
    location    "0.06";
    object      U;
}
// * * * * * * * * * * * * * * * * * * * * * * * * * * * * * * * * * * * * * //

dimensions      [0 1 -1 0 0 0 0];

internalField   nonuniform List<vector> 
75
(
(4.09091 -5.07754e-15 0)
(4.09091 -4.55245e-15 0)
(4.09091 -9.6475e-16 0)
(4.09091 4.49257e-14 0)
(4.09091 7.43078e-14 0)
(4.09091 -4.66747e-17 0)
(4.09091 3.66313e-15 0)
(4.09091 5.43552e-15 0)
(4.09091 3.54395e-15 0)
(4.09091 -6.11318e-15 0)
(4.09091 5.10838e-15 0)
(4.09091 4.93627e-15 0)
(4.09091 -9.74877e-15 0)
(4.09091 -5.39235e-14 0)
(4.09091 -9.35986e-14 0)
(4.09091 5.54346e-15 0)
(4.09091 2.26873e-15 0)
(4.09091 -1.20021e-15 0)
(4.09091 8.75443e-15 0)
(4.09091 7.77353e-14 0)
(4.09091 5.5743e-15 0)
(4.09091 5.20423e-15 0)
(4.09091 8.96155e-15 0)
(4.09091 1.52985e-14 0)
(4.09091 6.11585e-14 0)
(4.04736 0.0134993 0)
(3.98453 0.0651772 0)
(3.91723 0.141946 0)
(3.84798 0.244337 0)
(3.78848 0.365741 0)
(3.75186 0.494823 0)
(3.75242 0.590563 0)
(3.75745 0.694403 0)
(3.79352 0.743536 0)
(3.77129 0.863238 0)
(4.08984 0.00136676 0)
(4.08238 0.0146737 0)
(4.05926 0.0613086 0)
(4.00972 0.167691 0)
(3.93216 0.350912 0)
(3.84552 0.588645 0)
(3.78862 0.814947 0)
(3.74275 1.02041 0)
(3.73457 1.16112 0)
(3.68292 1.3063 0)
(4.09092 -1.57082e-05 0)
(4.09088 5.82672e-05 0)
(4.09089 0.000315655 0)
(4.09061 0.000320371 0)
(4.08705 0.00864508 0)
(4.07649 0.0388435 0)
(4.06024 0.110031 0)
(4.04222 0.239482 0)
(4.03999 0.369357 0)
(4.02333 0.664564 0)
(4.09091 -1.73551e-06 0)
(4.09091 -1.04501e-06 0)
(4.09091 -1.07619e-06 0)
(4.09091 -5.09541e-06 0)
(4.09093 -9.66636e-05 0)
(4.09078 0.000381049 0)
(4.09039 0.00165269 0)
(4.08809 0.0128257 0)
(4.0853 0.0354702 0)
(4.07237 0.217587 0)
(4.09091 4.73462e-10 0)
(4.09091 -1.46194e-07 0)
(4.09091 -1.83968e-07 0)
(4.09091 -8.89872e-07 0)
(4.09092 -1.66173e-05 0)
(4.09091 -1.02051e-05 0)
(4.09091 -1.74908e-05 0)
(4.09088 8.62395e-05 0)
(4.09084 -1.9463e-05 0)
(4.08931 0.00824473 0)
)
;

boundaryField
{
    inlet
    {
        type            fixedValue;
        value           uniform (4.09091 0 0);
    }
    outlet
    {
        type            zeroGradient;
    }
    bottom
    {
        type            symmetryPlane;
    }
    top
    {
        type            symmetryPlane;
    }
    obstacle
    {
        type            slip;
    }
    defaultFaces
    {
        type            empty;
    }
}


// ************************************************************************* //
