/*--------------------------------*- C++ -*----------------------------------*\
| =========                 |                                                 |
| \\      /  F ield         | OpenFOAM: The Open Source CFD Toolbox           |
|  \\    /   O peration     | Version:  2206                                  |
|   \\  /    A nd           | Website:  www.openfoam.com                      |
|    \\/     M anipulation  |                                                 |
\*---------------------------------------------------------------------------*/
FoamFile
{
    version     2.0;
    format      ascii;
    arch        "LSB;label=32;scalar=64";
    class       volScalarField;
    location    "0.16";
    object      T;
}
// * * * * * * * * * * * * * * * * * * * * * * * * * * * * * * * * * * * * * //

dimensions      [0 0 0 1 0 0 0];

internalField   nonuniform List<scalar> 
75
(
1
1
1
1
1
1
1
1
1
1
1
1
1
1
1
1
1
1
1
1
1
1
1
1
1
1.07477
1.17903
1.28694
1.39549
1.4942
1.578
1.64025
1.63995
1.60618
1.53054
1.00183
1.01081
1.04216
1.09686
1.18118
1.26639
1.36694
1.4283
1.47862
1.49649
1
0.999966
1.00014
1.00186
1.01222
1.05056
1.15764
1.37022
1.48715
1.53365
1
0.999989
0.99999
1
0.999969
1.00046
1.01229
1.11946
1.34107
1.58137
1
1
0.999998
0.999998
0.999996
0.999981
0.999997
1.00636
1.12948
1.67975
)
;

boundaryField
{
    inlet
    {
        type            fixedValue;
        value           uniform 1;
    }
    outlet
    {
        type            zeroGradient;
    }
    bottom
    {
        type            symmetryPlane;
    }
    top
    {
        type            symmetryPlane;
    }
    obstacle
    {
        type            zeroGradient;
    }
    defaultFaces
    {
        type            empty;
    }
}


// ************************************************************************* //
