/*--------------------------------*- C++ -*----------------------------------*\
| =========                 |                                                 |
| \\      /  F ield         | OpenFOAM: The Open Source CFD Toolbox           |
|  \\    /   O peration     | Version:  2206                                  |
|   \\  /    A nd           | Website:  www.openfoam.com                      |
|    \\/     M anipulation  |                                                 |
\*---------------------------------------------------------------------------*/
FoamFile
{
    version     2.0;
    format      ascii;
    arch        "LSB;label=32;scalar=64";
    class       volScalarField;
    location    "0.06";
    object      p;
}
// * * * * * * * * * * * * * * * * * * * * * * * * * * * * * * * * * * * * * //

dimensions      [1 -1 -2 0 0 0 0];

internalField   nonuniform List<scalar> 
4800
(
1
1
1
1
1
1
1
1
1
1
1
1
1
1
1
1
1
1
1
1
1
1
1
1
1
1
1
1
1
1
1
1
1
1
1
1
1
1
1
1
1
1
1
1
1
1
1
1
1
1
1
1
1
1
1
1
1
1
1
1
1
1
1
1
1
1
1
1
1
1
1
1
1
1
1
1
1
1
1
1
1
1
1
1
1
1
1
1
1
1
1
1
1
1
1
1
1
1
1
1
1
1
1
1
1
1
1
1
1
1
1
1
1
1
1
1
1
1
1
1
1
1
1
1
1
1
1
1
1
1
1
1
1
1
1
1
1
1
1
1
1
1
1
1
1
1
1
1
1
1
1
1
1
1
1
1
1
1
1
1
1
1
1
1
1
1
1
1
1
1
1
1
1
1
1
1
1
1
1
1
1
1
1
1
1
1
1
1
1
1
1
1
1
1
1
1
1
1
1
1
1
1
1
1
1
1
1
1
1
1
1
1
1
1
1
1
1
1
1
1
1
1
1
1
1
1
1
1
1
1
1
1
1
1
1
1
1
1
1
1
1
1
1
1
1
1
1
1
1
1
1
1
1
1
1
1
1
1
1
1
1
1
1
1
1
1
1
1
1
1
1
1
1
1
1
1
1
1
1
1
1
1
1
1
1
1
1
1
1
1
1
1
1
1
1
1
1
1
1
1
1
1
1
1
1
1
1
1
1
1
1
1
1
1
1
1
1
1
1
1
1
1
1
1
1
1
1
1
1
1
1
1
1
1
1
1
1
1
1
1
1
1
1
1
1
1
1
1
1
1
1
1
1
1
1
1
1
1
1
1
1
1
1
1
1
1
1
1
1
1
1
1
1
1
1
1
1
1
1
1
1
1
1
1
1
1
1
1
1
1
1
1
1
1
1
1
1
1
1
1
1
1
1
1
1
1
1
1
1
1
1
1
1
1
1
1
1
1
1
1
1
1
1
1
1
1
1
1
1
1
1
1
1
1
1
1
1
1
1
1
1
1
1
1
1
1
1
1
1
1
1
1
1
1
1
1
1
1
1
1
1
1
1
1
1
1
1
1
1
1
1
1
1
1
1
1
1
1
1
1
1
1
1
1
1
1
1
1
1
1
1
1
1
1
1
1
1
1
1
1
1
1
1
1
1
1
1
1
1
1
1
1
1
1
1
1
1
1
1
1
1
1
1
1
1
1
1
1
1
1
1
1
1
1
1
1
1
1
1
1
1
1
1
1
1
1
1
1
1
1
1
1
1
1
1
1
1
1
1
1
1
1
1
1
1
1
1
1
1
1
1
1
1
1
1
1
1
1
1
1
1
1
1
1
1
1
1
1
1
1
1
1
1
1
1
1
1
1
1
1
1
1
1
1
1
1
1
1
1
1
1
1
1
1
1
1
1
1
1
1
1
1
1
1
1
1
1
1
1
1
1
1
1
1
1
1
1
1
1
1
1
1
1
1
1
1
1
1
1
1
1
1
1
1
1
1
1
1
1
1
1
1
1
1
1
1
1
1
1
1
1
1
1
1
1
1
1
1
1
1
1
1
1
1
1
1
1
1
1
1
1
1
1
1
1
1
1
1
1
1
1
1
1
1
1
1
1
1
1
1
1
1
1
1
1
1
1
1
1
1
1
1
1
1
1
1
1
1
1
1
1
1
1
1
1
1
1
1
1
1
1
1
1
1
1
1
1
1
1
1
1
1
1
1
1
1
1
1
1
1
1
1
1
1
1
1
1
1
1
1
1
1
1
1
1
1
1
1
1
1
1
1
1
1
1
1
1
1
1
1
1
1
1
1
1
1
1
1
1
1
1
1
1
1
1
1
1
1
1
1
1
1
1
1
1
1
1
1
1
1
1
1
1
1
1
1
1
1
1
1
1
1
1
1
1
1
1
1
1
1
1
1
1
1
1
1
1
1
1
1
1
1
1
1
1
1
1
1
1
1
1
1
1
1
1
1
1
1
1
1
1
1
1
1
1
1
1
1
1
1
1
1
1
1
1
1
1
1
1
1
1
1
1
1
1
1
1
1
1
1
1
1
1
1
1
1
1
1
1
1
1
1
1
1
1
1
1
1
1
1
1
1
1
1
1
1
1
1
1
1
1
1
1
1
1
1
1
1
1
1
1
1
1
1
1
1
1
1
1
1
1
1
1
1
1
1
1
1
1
1
1
1
1
1
1
1
1
1
1
1
1
1
1
1
1
1
1
1
1
1
1
1
1
1
1
1
1
1
1
1
1
1
1
1
1
1
1
1
1
1
1
1
1
1
1
1
1
1
1
1
1
1
1
1
1
1
1
1
1
1
1
1
1
1
1
1
1
1
1
1
1
1
1
1
1
1
1
1
1
1
1
1
1
1
1
1
1
1
1
1
1
1
1
1
1
1
1
1
1
1
1
1
1
1
1
1
1
1
1
1
1
1
1
1
1
1
1
1
1
1
1
1
1
1
1
1
1
1
1
1
1
1
1
1
1
1
1
1
1
1
1
1
1
1
1
1
1
1
1
1
1
1
1
1
1
1
1
1
1
1
1
1
1
1
1
1
1
1
1
1
1
1
1
1
1
1
1
1
1
1
1
1
1
1
1
1
1
1
1
1
1
1
1
1
1
1
1
1
1
1
1
1
1
1
1
1
1
1
1
1
1
1
1
1
1
1
1
1
1
1
1
1
1
1
1
1
1
1
1
1
1
1
1
1
1
1
1
1
1
1
1
1
1
1
1
1
1
1
1
1
1
1
1
1
1
1
1
1
1
1
1
1
1
1
1
1
1
1
1
1
1
1
1
1
1
1
1
1
1
1
1
1
1
1
1
1
1
1
1
1
1
1
1
1
1
1
1
1
1
1
1
1
1
1
1
1
1
1
1
1
1
1
1
1
1
1
1
1
1
1
1
1
1
1
1
1
1
1
1
1
1
1
1
1
1
1
1
1
1
1
1
1
1
1
1
1
1
1
1
1
1
1
1
1
1
1
1
1
1
1
1
1
1
1
1
1
1
1
1
1
1
1
1
1
1
1
1
1
1
1
1
1
1
1
1
1
1
1
1
1
1
1
1
1
1
1
1
1
1
1
1
1
1
1
1
1
1
1
1
1
1
1
1
1
1
1
1
1
1
1
1
1
1
1
1
1
1
1
1
1
1
1
1
1
1
1
1
1
1
1
1
1
1
1
1
1
1
1
1
1
1
1
1
1
1
1
1
1
1
1
1
1
1
1
1
1
1
1
1
1
1
1
1
1
1
1
1
1
1
1
1
1
1
1
1
1
1
1
1
1
1
1
1
1
1
1
1
1
1
1
1
1
1
1
1
1
1
1
1
1
1
1
1
1
1
1
1
1
1
1
1
1
1
1
1
1
1
1
1
1
1
1
1
1
1
1
1
1
1
1
1
1
1
1
1
1
1
1
1
1
1
1
1
1
1
1
1
1
1
1
1
1
1
1
1
1
1
1
1
1
1
1
1
1
1
1
1
1
1
1
1
1
1
1
1
1
1
1
1
1
1
1
1
1
1
1
1
1
1
1
1
1
1
1
1
1
1
1
1
1
1
1
1
1
1
1
1
1
1
1
1
1
1
1
1
1
1
1
1
1
1
1
1
1
1
1
1
1
1
1
1.26444
1.68136
2.18288
2.77924
3.34618
3.83195
4.37528
5.15463
5.54983
5.68113
6.01545
6.26432
6.21198
6.03005
5.71781
5.31727
4.94601
4.59961
4.28656
4.14967
4.12737
4.08226
4.05771
4.0706
4.13218
4.225
4.31897
4.33587
4.32075
4.28756
4.2703
4.2819
4.31061
4.34448
4.37405
4.38559
4.39057
4.39368
4.38973
4.3822
4.37642
4.37075
4.36592
4.36082
4.34754
4.33068
4.32727
4.32603
4.31088
4.27446
4.23136
4.20695
4.19512
4.17988
4.15293
4.12968
4.12407
4.12307
4.12201
4.12061
4.11856
4.11513
4.11067
4.10813
4.11052
4.11497
4.1174
4.12404
4.14327
4.14596
4.13716
4.13093
4.13045
4.131
4.13104
4.13225
4.1375
4.14667
4.15005
4.15287
0.999954
1.00037
1.00698
1.0325
1.13749
1.32173
1.50345
1.75461
2.21246
2.64221
3.00072
3.58285
3.88212
4.15061
4.34321
4.48104
4.75404
4.74879
4.62326
4.56791
4.57649
4.54131
4.41826
4.31666
4.31227
4.28723
4.26551
4.25351
4.25302
4.25981
4.27282
4.3009
4.33094
4.34395
4.34237
4.33575
4.33185
4.33975
4.35069
4.36247
4.37324
4.38059
4.38391
4.38362
4.3772
4.35558
4.32915
4.30986
4.28362
4.24144
4.2013
4.17954
4.17078
4.16158
4.14518
4.12915
4.12537
4.12402
4.1227
4.12104
4.11736
4.11108
4.10398
4.09795
4.09798
4.10268
4.10764
4.11709
4.13596
4.13806
4.13086
4.12711
4.12813
4.13021
4.13166
4.13312
4.13677
4.1408
4.14388
4.14987
1
1
1
1
1
1
0.999772
0.999594
1.01478
1.08175
1.1908
1.45496
1.94578
2.49324
3.29724
4.12469
4.75004
4.9655
4.97199
4.96673
4.94466
4.88801
4.74322
4.57895
4.38137
4.24845
4.20739
4.23147
4.25196
4.26991
4.29807
4.32528
4.34827
4.35888
4.3514
4.3265
4.30688
4.30883
4.3159
4.3278
4.35653
4.39133
4.40193
4.40209
4.39454
4.37083
4.34111
4.31265
4.27872
4.23619
4.18994
4.16689
4.15728
4.15097
4.14125
4.12894
4.12451
4.12312
4.1222
4.12091
4.1185
4.11465
4.10782
4.10156
4.10297
4.10886
4.1147
4.12579
4.1415
4.13998
4.13114
4.12666
4.12878
4.13208
4.13464
4.13701
4.13938
4.14156
4.14307
4.1488
1
1
1
1
1
1
1
1
1
1
1
0.999293
1.0059
1.03533
1.20979
1.64824
2.33349
3.19865
3.73335
4.3717
4.60042
4.58676
4.59065
4.58003
4.55065
4.50666
4.42569
4.39361
4.36755
4.36612
4.33286
4.31814
4.31695
4.30227
4.29752
4.29774
4.30484
4.3182
4.32333
4.32658
4.33827
4.3632
4.3797
4.38496
4.38337
4.3707
4.34572
4.31533
4.28191
4.24465
4.20182
4.165
4.14222
4.1316
4.12553
4.12161
4.12059
4.1193
4.11828
4.11972
4.12191
4.11824
4.10938
4.10317
4.10622
4.11171
4.11728
4.12959
4.14535
4.14137
4.13118
4.12641
4.12827
4.13206
4.13437
4.13631
4.13909
4.14219
4.14446
4.15106
1
1
1
1
1
1
1
1
1
1
1
1
1
1
0.999806
1.0006
1.02199
1.19648
1.54789
2.10554
2.92776
3.58657
4.34884
4.60635
4.71365
4.72601
4.69131
4.62446
4.53411
4.37626
4.26698
4.26492
4.2976
4.30876
4.30498
4.30638
4.31515
4.32372
4.33728
4.33326
4.32722
4.33616
4.34989
4.35599
4.35702
4.35346
4.33958
4.31494
4.28221
4.24264
4.20432
4.17411
4.14936
4.13028
4.12612
4.12458
4.12206
4.11913
4.11861
4.12299
4.12347
4.11599
4.10732
4.10698
4.10441
4.10527
4.11016
4.12948
4.14653
4.13813
4.1269
4.12265
4.12742
4.1332
4.13504
4.13617
4.13815
4.1409
4.14279
4.1498
1
1
1
1
1
1
1
1
1
1
1
1
1
1
1
1
1
0.999996
1
1.01213
1.15475
1.49523
2.02193
2.77583
3.4472
4.17346
4.35854
4.4149
4.3861
4.35246
4.33606
4.35654
4.39466
4.39986
4.37544
4.3663
4.36342
4.35499
4.33873
4.3179
4.29956
4.30325
4.32768
4.34222
4.34146
4.33828
4.33149
4.3134
4.28242
4.24322
4.20697
4.17927
4.15476
4.13769
4.13137
4.12831
4.12454
4.12007
4.11689
4.11704
4.11457
4.1084
4.10318
4.1037
4.10824
4.11323
4.12043
4.14142
4.14787
4.13586
4.12189
4.11603
4.12278
4.12998
4.13276
4.1343
4.13663
4.1391
4.13988
4.1466
1
1
1
1
1
1
1
1
1
1
1
1
1
1
1
1
1
1
1
1
0.999969
1.00023
1.01112
1.13337
1.41393
1.95083
2.66
3.3734
4.09688
4.29102
4.47882
4.51345
4.49142
4.45791
4.40705
4.35268
4.31311
4.32988
4.33968
4.33406
4.33336
4.33181
4.32634
4.3227
4.3145
4.30927
4.30648
4.29423
4.26513
4.22997
4.20347
4.18588
4.17105
4.15355
4.13586
4.12789
4.12098
4.11376
4.10671
4.10253
4.09744
4.09316
4.09273
4.09579
4.10579
4.11412
4.12547
4.1452
4.14384
4.12955
4.11485
4.11266
4.11956
4.12659
4.12961
4.13185
4.13438
4.13656
4.13763
4.14544
1
1
1
1
1
1
1
1
1
1
1
1
1
1
1
1
1
1
1
1
1
1
0.999992
1.00002
1.00005
1.01176
1.12971
1.36402
1.9136
2.63999
3.42651
3.99981
4.13039
4.21491
4.19085
4.19927
4.27709
4.36486
4.41373
4.41808
4.40996
4.38804
4.363
4.33184
4.3099
4.28965
4.27995
4.26911
4.24856
4.21306
4.1935
4.18274
4.17187
4.15598
4.13121
4.11639
4.10691
4.09667
4.08697
4.07992
4.08747
4.10274
4.11187
4.11543
4.1151
4.11787
4.13074
4.14355
4.1354
4.11306
4.10109
4.10408
4.11264
4.12101
4.12586
4.1304
4.13389
4.13592
4.13661
4.14414
1
1
1
1
1
1
1
1
1
1
1
1
1
1
1
1
1
1
1
1
1
1
1
1
1
0.999988
1.00006
1.00018
1.01495
1.13327
1.38426
1.96247
2.69735
3.42466
3.93844
4.13848
4.26983
4.38046
4.41451
4.41985
4.41547
4.39728
4.34779
4.31362
4.3125
4.31587
4.30993
4.2888
4.23523
4.18488
4.16918
4.15918
4.15323
4.14873
4.14189
4.1333
4.12505
4.1153
4.10414
4.09596
4.09463
4.09668
4.10288
4.10769
4.10996
4.11355
4.12694
4.13704
4.12028
4.10619
4.11056
4.11915
4.12192
4.12757
4.13181
4.13534
4.1388
4.14096
4.1421
4.14993
1
1
1
1
1
1
1
1
1
1
1
1
1
1
1
1
1
1
1
1
1
1
1
1
1
1
1
0.999999
1
0.999965
1.00052
1.02714
1.14167
1.42284
2.01608
2.79459
3.48894
3.90133
4.05183
4.13252
4.23672
4.32042
4.3258
4.34606
4.38385
4.38769
4.36747
4.32284
4.24543
4.14949
4.12584
4.12172
4.1208
4.13131
4.14851
4.15178
4.1443
4.13252
4.11828
4.10383
4.09054
4.08338
4.08828
4.09758
4.10386
4.10986
4.11968
4.12154
4.11599
4.10807
4.11389
4.12422
4.12474
4.12687
4.13126
4.13434
4.13763
4.14025
4.14269
4.15159
1
1
1
1
1
1
1
1
1
1
1
1
1
1
1
1
1
1
1
1
1
1
1
1
1
1
1
1
1
0.999999
0.999998
1.00002
0.999963
1.00199
1.03015
1.17245
1.54046
2.17189
2.95927
3.50948
3.96943
4.26853
4.30821
4.34818
4.37712
4.38206
4.36711
4.32975
4.25617
4.14413
4.10075
4.09561
4.09393
4.10794
4.13012
4.13168
4.1218
4.11156
4.10173
4.09086
4.08385
4.08237
4.09299
4.10796
4.11316
4.1162
4.11996
4.119
4.1147
4.10593
4.1076
4.11835
4.12144
4.1208
4.12505
4.12881
4.1317
4.13468
4.13814
4.14915
1
1
1
1
1
1
1
1
1
1
1
1
1
1
1
1
1
1
1
1
1
1
1
1
1
1
1
1
1
1
1
1
0.999999
0.999998
0.999984
1.00007
1.00576
1.04911
1.23436
1.72066
2.365
3.23462
3.70773
3.98654
4.13254
4.2245
4.26691
4.30001
4.29999
4.24305
4.16043
4.12003
4.1046
4.09398
4.10175
4.09529
4.0863
4.08148
4.08219
4.08429
4.08764
4.09524
4.10398
4.11023
4.11813
4.119
4.1141
4.10859
4.10591
4.10179
4.10273
4.11272
4.11715
4.11733
4.12215
4.12614
4.1283
4.13047
4.13439
4.14846
1
1
1
1
1
1
1
1
1
1
1
1
1
1
1
1
1
1
1
1
1
1
1
1
1
1
1
1
1
1
1
1
1
1
1
0.999999
1
0.999964
1.0006
1.01451
1.09107
1.36503
2.02875
2.81131
3.40406
3.85781
4.15629
4.2947
4.29422
4.24628
4.14896
4.08135
4.0722
4.08127
4.08673
4.07608
4.07044
4.07628
4.08788
4.10305
4.10501
4.09678
4.0931
4.09592
4.10453
4.10585
4.10094
4.0968
4.09841
4.10216
4.11034
4.12125
4.12135
4.1193
4.12361
4.12517
4.12739
4.13029
4.13532
4.15245
1
1
1
1
1
1
1
1
1
1
1
1
1
1
1
1
1
1
1
1
1
1
1
1
1
1
1
1
1
1
1
1
1
1
1
1
1
0.999998
0.999998
0.999994
1.00003
1.0027
1.0443
1.19879
1.67428
2.40713
3.14331
3.6507
4.04482
4.08779
4.03418
3.98358
4.01285
4.08976
4.13172
4.12105
4.11093
4.10331
4.097
4.1058
4.09997
4.07979
4.06591
4.07018
4.08666
4.09239
4.09277
4.09247
4.09287
4.09611
4.10883
4.12281
4.12215
4.12047
4.12446
4.12275
4.12284
4.12591
4.13054
4.15005
1
1
1
1
1
1
1
1
1
1
1
1
1
1
1
1
1
1
1
1
1
1
1
1
1
1
1
1
1
1
1
1
1
1
1
1
1
1
1
1
0.999999
1
0.999989
1.00071
1.01512
1.10678
1.46893
2.08584
2.81695
3.46332
3.82201
3.89528
3.95936
4.06222
4.10479
4.09277
4.07742
4.0666
4.07033
4.08574
4.07922
4.05541
4.04265
4.0487
4.06881
4.09795
4.1106
4.10872
4.09147
4.08719
4.09724
4.11414
4.11988
4.12189
4.1258
4.1287
4.12713
4.12534
4.12655
4.14442
1
1
1
1
1
1
1
1
1
1
1
1
1
1
1
1
1
1
1
1
1
1
1
1
1
1
1
1
1
1
1
1
1
1
1
1
1
1
1
1
1
1
0.999999
0.999999
0.999983
1.00022
1.00612
1.06413
1.27387
1.73725
2.44386
3.06798
3.41078
3.68418
3.87893
3.95987
3.96083
3.9482
3.98726
4.05619
4.09163
4.08763
4.07754
4.06512
4.07113
4.09425
4.11227
4.10719
4.08411
4.06777
4.07489
4.09945
4.11536
4.12451
4.12412
4.13078
4.13459
4.12942
4.12698
4.14338
1
1
1
1
1
1
1
1
1
1
1
1
1
1
1
1
1
1
1
1
1
1
1
1
1
1
1
1
1
1
1
1
1
1
1
1
1
1
1
1
1
1
1
1
0.999999
0.999999
0.999991
1.00007
1.002
1.02663
1.12633
1.44344
1.91861
2.4432
2.99636
3.54761
3.81849
3.91544
3.97397
4.05967
4.11946
4.12132
4.10545
4.04716
4.01535
4.0328
4.08697
4.09768
4.08025
4.05811
4.05939
4.07786
4.10407
4.12081
4.12327
4.12251
4.12991
4.13255
4.13051
4.14428
1
1
1
1
1
1
1
1
1
1
1
1
1
1
1
1
1
1
1
1
1
1
1
1
1
1
1
1
1
1
1
1
1
1
1
1
1
1
1
1
1
1
1
1
1
1
0.999999
0.999999
1
1
1.0004
1.00733
1.03738
1.16572
1.48685
1.95824
2.54462
3.23075
3.50161
3.67386
3.8702
4.03425
4.05114
4.01943
3.96031
3.97593
4.04148
4.10355
4.11236
4.10385
4.07352
4.06868
4.08644
4.1121
4.12006
4.11575
4.12063
4.12607
4.12364
4.13928
1
1
1
1
1
1
1
1
1
1
1
1
1
1
1
1
1
1
1
1
1
1
1
1
1
1
1
1
1
1
1
1
1
1
1
1
1
1
1
1
1
1
1
1
1
1
1
1
1
1
0.999999
1.00001
1.00001
1.00096
1.00915
1.05509
1.19856
1.51517
2.05885
2.65036
3.09842
3.53996
3.93873
4.05289
4.02229
4.01295
4.04141
4.09902
4.12176
4.11645
4.07434
4.03266
4.0427
4.091
4.11466
4.11222
4.10639
4.1119
4.11626
4.14504
1
1
1
1
1
1
1
1
1
1
1
1
1
1
1
1
1
1
1
1
1
1
1
1
1
1
1
1
1
1
1
1
1
1
1
1
1
1
1
1
1
1
1
1
1
1
1
1
1
1
1
1
1
1
0.999997
1.00009
1.00135
1.01147
1.06766
1.21986
1.63936
2.19044
2.74877
3.38792
3.81378
3.84715
3.85555
3.9313
4.06773
4.09928
4.0812
4.02966
4.02669
4.06059
4.10593
4.12705
4.12103
4.10616
4.11155
4.15532
1
1
1
1
1
1
1
1
1
1
1
1
1
1
1
1
1
1
1
1
1
1
1
1
1
1
1
1
1
1
1
1
1
1
1
1
1
1
1
1
1
1
1
1
1
1
1
1
1
1
1
1
1
1
1
1
1
0.999998
1.00015
1.00204
1.02105
1.09494
1.34449
1.769
2.37928
3.07048
3.47598
3.67756
3.88856
4.07221
4.10276
4.08789
4.05913
4.04769
4.07866
4.1268
4.13797
4.12425
4.11521
4.15833
1
1
1
1
1
1
1
1
1
1
1
1
1
1
1
1
1
1
1
1
1
1
1
1
1
1
1
1
1
1
1
1
1
1
1
1
1
1
1
1
1
1
1
1
1
1
1
1
1
1
1
1
1
1
1
1
1
1
1
0.999999
1.00001
1.00038
1.00525
1.03141
1.1661
1.44777
1.99302
2.70769
3.18761
3.55291
3.9052
4.04761
4.04611
3.98957
3.98573
4.06448
4.138
4.1488
4.13164
4.16322
1
1
1
1
1
1
1
1
1
1
1
1
1
1
1
1
1
1
1
1
1
1
1
1
1
1
1
1
1
1
1
1
1
1
1
1
1
1
1
1
1
1
1
1
1
1
1
1
1
1
1
1
1
1
1
1
1
1
1
1
1
0.999999
1
1.00003
1.00128
1.01006
1.07152
1.26199
1.69761
2.30618
2.94038
3.42959
3.84054
4.01368
3.98787
3.99553
4.08241
4.15679
4.16037
4.1802
1
1
1
1
1
1
1
1
1
1
1
1
1
1
1
1
1
1
1
1
1
1
1
1
1
1
1
1
1
1
1
1
1
1
1
1
1
1
1
1
1
1
1
1
1
1
1
1
1
1
1
1
1
1
1
1
1
1
1
1
1
1
1
1
1
0.999998
1.00027
1.00348
1.02948
1.13465
1.45904
2.02537
2.67917
3.2855
3.822
3.89401
3.95938
4.09847
4.16119
4.18515
1
1
1
1
1
1
1
1
1
1
1
1
1
1
1
1
1
1
1
1
1
1
1
1
1
1
1
1
1
1
1
1
1
1
1
1
1
1
1
1
1
1
1
1
1
1
1
1
1
1
1
1
1
1
1
1
1
1
1
1
1
1
1
1
1
1
1
0.999999
1.00004
1.001
1.01205
1.07542
1.30292
1.79056
2.45651
3.13963
3.59769
3.82731
4.03063
4.1702
1
1
1
1
1
1
1
1
1
1
1
1
1
1
1
1
1
1
1
1
1
1
1
1
1
1
1
1
1
1
1
1
1
1
1
1
1
1
1
1
1
1
1
1
1
1
1
1
1
1
1
1
1
1
1
1
1
1
1
1
1
1
1
1
1
1
1
1
1
1
1
1.00035
1.00517
1.04177
1.19373
1.58784
2.19005
2.90261
3.44622
3.92139
1
1
1
1
1
1
1
1
1
1
1
1
1
1
1
1
1
1
1
1
1
1
1
1
1
1
1
1
1
1
1
1
1
1
1
1
1
1
1
1
1
1
1
1
1
1
1
1
1
1
1
1
1
1
1
1
1
1
1
1
1
1
1
1
1
1
1
1
1
1
1
1
0.999999
1.00011
1.00221
1.02155
1.11552
1.41906
1.91322
2.91598
1
1
1
1
1
1
1
1
1
1
1
1
1
1
1
1
1
1
1
1
1
1
1
1
1
1
1
1
1
1
1
1
1
1
1
1
1
1
1
1
1
1
1
1
1
1
1
1
1
1
1
1
1
1
1
1
1
1
1
1
1
1
1
1
1
1
1
1
1
1
1
1
1
1
0.999999
1.00003
1.00083
1.01055
1.05552
1.46208
1
1
1
1
1
1
1
1
1
1
1
1
1
1
1
1
1
1
1
1
1
1
1
1
1
1
1
1
1
1
1
1
1
1
1
1
1
1
1
1
1
1
1
1
1
1
1
1
1
1
1
1
1
1
1
1
1
1
1
1
1
1
1
1
1
1
1
1
1
1
1
1
1
1
1
1
0.999999
1.00001
1.00018
1.01644
1
1
1
1
1
1
1
1
1
1
1
1
1
1
1
1
1
1
1
1
1
1
1
1
1
1
1
1
1
1
1
1
1
1
1
1
1
1
1
1
1
1
1
1
1
1
1
1
1
1
1
1
1
1
1
1
1
1
1
1
1
1
1
1
1
1
1
1
1
1
1
1
1
1
1
1
1
1
1
1.00005
1
1
1
1
1
1
1
1
1
1
1
1
1
1
1
1
1
1
1
1
1
1
1
1
1
1
1
1
1
1
1
1
1
1
1
1
1
1
1
1
1
1
1
1
1
1
1
1
1
1
1
1
1
1
1
1
1
1
1
1
1
1
1
1
1
1
1
1
1
1
1
1
1
1
1
1
1
1
1
1
1
1
1
1
1
1
1
1
1
1
1
1
1
1
1
1
1
1
1
1
1
1
1
1
1
1
1
1
1
1
1
1
1
1
1
1
1
1
1
1
1
1
1
1
1
1
1
1
1
1
1
1
1
1
1
1
1
1
1
1
1
1
1
1
1
1
1
1
1
1
1
1
1
1
1
1
1
1
1
1
1
1
1
1
1
1
1
1
1
1
1
1
1
1
1
1
1
1
1
1
1
1
1
1
1
1
1
1
1
1
1
1
1
1
1
1
1
1
1
1
1
1
1
1
1
1
1
1
1
1
1
1
1
1
1
1
1
1
1
1
1
1
1
1
1
1
1
1
1
1
1
1
1
1
1
1
1
1
1
1
1
1
1
1
1
1
1
1
1
1
1
1
1
1
1
1
1
1
1
1
1
1
1
1
1
1
1
1
1
1
1
1
1
1
1
1
1
1
1
1
1
1
1
1
1
1
1
1
1
1
1
1
1
1
1
1
1
1
1
1
1
1
1
1
1
1
1
1
1
1
1
1
1
1
1
1
1
1
1
1
1
1
1
1
1
1
1
1
1
1
1
1
1
1
1
1
1
1
1
1
1
1
1
1
1
1
1
1
1
1
1
1
1
1
1
1
1
1
1
1
1
1
1
1
1
1
1
1
1
1
1
1
1
1
1
1
1
1
1
1
1
1
1
1
1
1
1
1
1
1
1
1
1
1
1
1
1
1
1
1
1
1
1
1
1
1
1
1
1
1
1
1
1
1
1
1
1
1
1
1
1
1
1
1
1
1
1
1
1
1
1
1
1
1
1
1
1
1
1
1
1
1
1
1
1
1
1
1
1
1
1
1
1
1
1
1
1
1
1
1
1
1
1
1
1
1
1
1
1
1
1
1
1
1
1
1
1
1
1
1
1
1
1
1
1
1
1
1
1
1
1
1
1
1
1
1
1
1
1
1
1
1
1
1
1
1
1
1
1
1
1
1
1
1
1
1
1
1
1
1
1
1
1
1
1
1
1
1
1
1
1
1
1
1
1
1
1
1
1
1
1
1
1
1
1
1
1
1
1
1
1
1
1
1
1
1
1
1
1
1
1
1
1
1
1
1
1
1
1
1
1
1
1
1
1
1
1
1
1
1
1
1
1
1
1
1
1
1
1
1
1
1
1
1
1
1
1
1
1
1
1
1
1
1
1
1
1
1
1
1
1
1
1
1
1
1
1
1
1
1
1
1
1
1
1
1
1
1
1
1
1
1
1
1
1
1
1
1
1
1
1
1
1
1
1
1
1
1
1
1
1
1
1
1
1
1
1
1
1
1
1
1
1
1
1
1
1
1
1
1
1
1
1
1
1
1
1
1
1
1
1
1
1
1
1
1
1
1
1
1
1
1
1
1
1
1
1
1
1
1
1
1
1
1
1
1
1
1
1
1
1
1
1
1
1
1
1
1
1
1
1
1
1
1
1
1
1
1
1
1
1
1
1
1
1
1
1
1
1
1
1
1
1
1
1
1
1
1
1
1
1
1
1
1
1
1
1
1
1
1
1
1
1
1
1
1
1
1
1
1
1
1
1
1
1
1
1
1
1
1
1
1
1
1
1
1
1
1
1
1
1
1
1
1
1
1
1
1
1
1
)
;

boundaryField
{
    inlet
    {
        type            fixedValue;
        value           uniform 1;
    }
    outlet
    {
        type            zeroGradient;
    }
    bottom
    {
        type            symmetryPlane;
    }
    top
    {
        type            symmetryPlane;
    }
    obstacle
    {
        type            zeroGradient;
    }
    defaultFaces
    {
        type            empty;
    }
}


// ************************************************************************* //
