/*--------------------------------*- C++ -*----------------------------------*\
| =========                 |                                                 |
| \\      /  F ield         | OpenFOAM: The Open Source CFD Toolbox           |
|  \\    /   O peration     | Version:  2206                                  |
|   \\  /    A nd           | Website:  www.openfoam.com                      |
|    \\/     M anipulation  |                                                 |
\*---------------------------------------------------------------------------*/
FoamFile
{
    version     2.0;
    format      ascii;
    arch        "LSB;label=32;scalar=64";
    class       volScalarField;
    location    "0.04";
    object      T;
}
// * * * * * * * * * * * * * * * * * * * * * * * * * * * * * * * * * * * * * //

dimensions      [0 0 0 1 0 0 0];

internalField   nonuniform List<scalar> 
4800
(
1
1
1
1
1
1
1
1
1
1
1
1
1
1
1
1
1
1
1
1
1
1
1
1
1
1
1
1
1
1
1
1
1
1
1
1
1
1
1
1
1
1
1
1
1
1
1
1
1
1
1
1
1
1
1
1
1
1
1
1
1
1
1
1
1
1
1
1
1
1
1
1
1
1
1
1
1
1
1
1
1
1
1
1
1
1
1
1
1
1
1
1
1
1
1
1
1
1
1
1
1
1
1
1
1
1
1
1
1
1
1
1
1
1
1
1
1
1
1
1
1
1
1
1
1
1
1
1
1
1
1
1
1
1
1
1
1
1
1
1
1
1
1
1
1
1
1
1
1
1
1
1
1
1
1
1
1
1
1
1
1
1
1
1
1
1
1
1
1
1
1
1
1
1
1
1
1
1
1
1
1
1
1
1
1
1
1
1
1
1
1
1
1
1
1
1
1
1
1
1
1
1
1
1
1
1
1
1
1
1
1
1
1
1
1
1
1
1
1
1
1
1
1
1
1
1
1
1
1
1
1
1
1
1
1
1
1
1
1
1
1
1
1
1
1
1
1
1
1
1
1
1
1
1
1
1
1
1
1
1
1
1
1
1
1
1
1
1
1
1
1
1
1
1
1
1
1
1
1
1
1
1
1
1
1
1
1
1
1
1
1
1
1
1
1
1
1
1
1
1
1
1
1
1
1
1
1
1
1
1
1
1
1
1
1
1
1
1
1
1
1
1
1
1
1
1
1
1
1
1
1
1
1
1
1
1
1
1
1
1
1
1
1
1
1
1
1
1
1
1
1
1
1
1
1
1
1
1
1
1
1
1
1
1
1
1
1
1
1
1
1
1
1
1
1
1
1
1
1
1
1
1
1
1
1
1
1
1
1
1
1
1
1
1
1
1
1
1
1
1
1
1
1
1
1
1
1
1
1
1
1
1
1
1
1
1
1
1
1
1
1
1
1
1
1
1
1
1
1
1
1
1
1
1
1
1
1
1
1
1
1
1
1
1
1
1
1
1
1
1
1
1
1
1
1
1
1
1
1
1
1
1
1
1
1
1
1
1
1
1
1
1
1
1
1
1
1
1
1
1
1
1
1
1
1
1
1
1
1
1
1
1
1
1
1
1
1
1
1
1
1
1
1
1
1
1
1
1
1
1
1
1
1
1
1
1
1
1
1
1
1
1
1
1
1
1
1
1
1
1
1
1
1
1
1
1
1
1
1
1
1
1
1
1
1
1
1
1
1
1
1
1
1
1
1
1
1
1
1
1
1
1
1
1
1
1
1
1
1
1
1
1
1
1
1
1
1
1
1
1
1
1
1
1
1
1
1
1
1
1
1
1
1
1
1
1
1
1
1
1
1
1
1
1
1
1
1
1
1
1
1
1
1
1
1
1
1
1
1
1
1
1
1
1
1
1
1
1
1
1
1
1
1
1
1
1
1
1
1
1
1
1
1
1
1
1
1
1
1
1
1
1
1
1
1
1
1
1
1
1
1
1
1
1
1
1
1
1
1
1
1
1
1
1
1
1
1
1
1
1
1
1
1
1
1
1
1
1
1
1
1
1
1
1
1
1
1
1
1
1
1
1
1
1
1
1
1
1
1
1
1
1
1
1
1
1
1
1
1
1
1
1
1
1
1
1
1
1
1
1
1
1
1
1
1
1
1
1
1
1
1
1
1
1
1
1
1
1
1
1
1
1
1
1
1
1
1
1
1
1
1
1
1
1
1
1
1
1
1
1
1
1
1
1
1
1
1
1
1
1
1
1
1
1
1
1
1
1
1
1
1
1
1
1
1
1
1
1
1
1
1
1
1
1
1
1
1
1
1
1
1
1
1
1
1
1
1
1
1
1
1
1
1
1
1
1
1
1
1
1
1
1
1
1
1
1
1
1
1
1
1
1
1
1
1
1
1
1
1
1
1
1
1
1
1
1
1
1
1
1
1
1
1
1
1
1
1
1
1
1
1
1
1
1
1
1
1
1
1
1
1
1
1
1
1
1
1
1
1
1
1
1
1
1
1
1
1
1
1
1
1
1
1
1
1
1
1
1
1
1
1
1
1
1
1
1
1
1
1
1
1
1
1
1
1
1
1
1
1
1
1
1
1
1
1
1
1
1
1
1
1
1
1
1
1
1
1
1
1
1
1
1
1
1
1
1
1
1
1
1
1
1
1
1
1
1
1
1
1
1
1
1
1
1
1
1
1
1
1
1
1
1
1
1
1
1
1
1
1
1
1
1
1
1
1
1
1
1
1
1
1
1
1
1
1
1
1
1
1
1
1
1
1
1
1
1
1
1
1
1
1
1
1
1
1
1
1
1
1
1
1
1
1
1
1
1
1
1
1
1
1
1
1
1
1
1
1
1
1
1
1
1
1
1
1
1
1
1
1
1
1
1
1
1
1
1
1
1
1
1
1
1
1
1
1
1
1
1
1
1
1
1
1
1
1
1
1
1
1
1
1
1
1
1
1
1
1
1
1
1
1
1
1
1
1
1
1
1
1
1
1
1
1
1
1
1
1
1
1
1
1
1
1
1
1
1
1
1
1
1
1
1
1
1
1
1
1
1
1
1
1
1
1
1
1
1
1
1
1
1
1
1
1
1
1
1
1
1
1
1
1
1
1
1
1
1
1
1
1
1
1
1
1
1
1
1
1
1
1
1
1
1
1
1
1
1
1
1
1
1
1
1
1
1
1
1
1
1
1
1
1
1
1
1
1
1
1
1
1
1
1
1
1
1
1
1
1
1
1
1
1
1
1
1
1
1
1
1
1
1
1
1
1
1
1
1
1
1
1
1
1
1
1
1
1
1
1
1
1
1
1
1
1
1
1
1
1
1
1
1
1
1
1
1
1
1
1
1
1
1
1
1
1
1
1
1
1
1
1
1
1
1
1
1
1
1
1
1
1
1
1
1
1
1
1
1
1
1
1
1
1
1
1
1
1
1
1
1
1
1
1
1
1
1
1
1
1
1
1
1
1
1
1
1
1
1
1
1
1
1
1
1
1
1
1
1
1
1
1
1
1
1
1
1
1
1
1
1
1
1
1
1
1
1
1
1
1
1
1
1
1
1
1
1
1
1
1
1
1
1
1
1
1
1
1
1
1
1
1
1
1
1
1
1
1
1
1
1
1
1
1
1
1
1
1
1
1
1
1
1
1
1
1
1
1
1
1
1
1
1
1
1
1
1
1
1
1
1
1
1
1
1
1
1
1
1
1
1
1
1
1
1
1
1
1
1
1
1
1
1
1
1
1
1
1
1
1
1
1
1
1
1
1
1
1
1
1
1
1
1
1
1
1
1
1
1
1
1
1
1
1
1
1
1
1
1
1
1
1
1
1
1
1
1
1
1
1
1
1
1
1
1
1
1
1
1
1
1
1
1
1
1
1
1
1
1
1
1
1
1
1
1
1
1
1
1
1
1
1
1
1
1
1
1
1
1
1
1
1
1
1
1
1
1
1
1
1
1
1
1
1
1
1
1
1
1
1
1
1
1
1
1
1
1
1
1
1
1
1
1
1
1
1
1
1
1
1
1
1
1
1
1
1
1
1
1
1
1
1
1
1
1
1
1
1
1
1
1
1
1
1
1
1
1
1
1
1
1
1
1
1.07418
1.16929
1.26102
1.35201
1.41839
1.47512
1.51876
1.54173
1.53647
1.51859
1.485
1.44674
1.42546
1.41422
1.40635
1.40495
1.40716
1.40968
1.40916
1.40743
1.40416
1.3979
1.39537
1.39564
1.39538
1.39408
1.3916
1.38877
1.3866
1.38587
1.38518
1.38505
1.38531
1.38582
1.38635
1.38688
1.38751
1.38851
1.38941
1.39011
1.39136
1.39411
1.39897
1.40394
1.40601
1.40621
1.4062
1.40624
1.40631
1.4064
1.40651
1.40667
1.40686
1.40706
1.40726
1.40745
1.40763
1.40775
1.40784
1.40792
1.40799
1.40799
1.40797
1.40794
1.4079
1.40782
1.40773
1.40769
1.40765
1.40761
1.40758
1.40755
1.40754
1.40755
1.40757
1.40761
1.40767
1.40774
1.40784
1.40802
1.00221
1.01241
1.03828
1.08011
1.1467
1.20827
1.26896
1.32867
1.37028
1.39792
1.41783
1.44229
1.44245
1.43892
1.43654
1.43163
1.42648
1.41985
1.41228
1.40665
1.40219
1.396
1.39526
1.39519
1.39463
1.39291
1.39021
1.38696
1.38474
1.38382
1.38389
1.38435
1.38525
1.38631
1.38716
1.38784
1.38872
1.38999
1.39146
1.39309
1.3954
1.39896
1.40378
1.40789
1.40926
1.40932
1.40926
1.4092
1.40907
1.40897
1.40892
1.40883
1.40877
1.40873
1.4087
1.40865
1.40858
1.40854
1.40852
1.40852
1.40851
1.4085
1.40849
1.40852
1.40855
1.4086
1.40867
1.40872
1.40878
1.40886
1.40895
1.40902
1.40909
1.40914
1.40917
1.40918
1.40917
1.40915
1.40911
1.40909
1
1.00002
1.0002
1.00105
1.00543
1.01801
1.05392
1.11895
1.22628
1.34577
1.42092
1.46842
1.47917
1.4768
1.46947
1.45849
1.44034
1.42549
1.4168
1.41125
1.40545
1.4037
1.40149
1.39908
1.39686
1.3945
1.3918
1.38921
1.38759
1.38767
1.38822
1.3895
1.39111
1.39254
1.39332
1.39405
1.39493
1.39612
1.39748
1.39935
1.40218
1.40632
1.41101
1.41384
1.41424
1.41423
1.41415
1.41375
1.41335
1.41307
1.41283
1.41263
1.41245
1.41227
1.41208
1.41193
1.41182
1.41174
1.41169
1.4117
1.41175
1.41184
1.41198
1.41214
1.41231
1.41248
1.41265
1.41278
1.41288
1.41293
1.41293
1.41287
1.41279
1.41268
1.41254
1.41241
1.41229
1.41216
1.41203
1.41187
1
1
1
1
1
1.00004
1.00042
1.00264
1.01888
1.08154
1.20567
1.33007
1.40288
1.45369
1.45275
1.45081
1.45411
1.4506
1.44211
1.43277
1.42253
1.41415
1.40675
1.40173
1.39874
1.39589
1.39291
1.39073
1.39047
1.39091
1.3918
1.39289
1.39418
1.39565
1.39689
1.39821
1.39955
1.40102
1.40274
1.40489
1.40787
1.41219
1.41684
1.41871
1.41881
1.41876
1.41848
1.41816
1.41803
1.41788
1.41773
1.41774
1.41774
1.41771
1.41769
1.41768
1.41768
1.41771
1.4177
1.41769
1.41768
1.41768
1.41764
1.4176
1.41754
1.41747
1.41738
1.41731
1.41724
1.41718
1.41712
1.41704
1.41697
1.4169
1.41682
1.41676
1.41674
1.41668
1.41667
1.41661
1
1
1
1
1
1
1
0.999999
1.00003
1.00077
1.01004
1.05241
1.15742
1.28598
1.37936
1.44492
1.46796
1.46625
1.45966
1.4493
1.43678
1.42059
1.40903
1.40392
1.40072
1.39849
1.3967
1.39493
1.39309
1.39163
1.3918
1.39218
1.39263
1.39396
1.39617
1.39864
1.40071
1.40286
1.40515
1.40743
1.41052
1.41456
1.41874
1.42068
1.42109
1.42115
1.42111
1.42123
1.42142
1.42164
1.42191
1.42217
1.42238
1.4225
1.42255
1.42257
1.42253
1.42247
1.42239
1.42229
1.42218
1.42206
1.42191
1.42173
1.42154
1.42133
1.42113
1.4209
1.4207
1.42054
1.42043
1.42039
1.4204
1.42046
1.42054
1.42062
1.42071
1.42074
1.42076
1.42068
1
1
1
1
1
1
1
1
1
0.999999
1.00001
1.0003
1.00479
1.03047
1.12515
1.24695
1.35709
1.4107
1.43589
1.4334
1.42753
1.42359
1.41621
1.41111
1.40742
1.40436
1.40089
1.39737
1.39447
1.39176
1.38957
1.38906
1.38958
1.39105
1.39366
1.39662
1.39938
1.40205
1.40478
1.40787
1.4116
1.41621
1.41976
1.4212
1.42167
1.42195
1.42239
1.42282
1.42323
1.42344
1.42356
1.42365
1.42373
1.42378
1.42381
1.42383
1.42381
1.42375
1.42364
1.42348
1.42328
1.42307
1.42287
1.42267
1.4225
1.42241
1.42234
1.42233
1.42233
1.42235
1.42239
1.42244
1.4225
1.42256
1.4226
1.42262
1.42258
1.42253
1.42247
1.42236
1
1
1
1
1
1
1
1
1
1
1
1
1
1.00012
1.00283
1.02023
1.09447
1.20684
1.31339
1.3738
1.40781
1.41728
1.41355
1.40772
1.40183
1.39811
1.3948
1.39027
1.38649
1.38458
1.3848
1.38587
1.38793
1.39073
1.39395
1.3972
1.40026
1.40329
1.40671
1.41072
1.41548
1.41978
1.42209
1.42264
1.42262
1.42259
1.42243
1.42223
1.42202
1.42187
1.42173
1.42161
1.42146
1.42131
1.42118
1.42107
1.42102
1.42102
1.42108
1.42121
1.4214
1.42162
1.42179
1.42193
1.42212
1.42233
1.42254
1.42276
1.42293
1.42303
1.42305
1.42305
1.42304
1.423
1.42293
1.42285
1.42274
1.42261
1.42249
1.42235
1
1
1
1
1
1
1
1
1
1
1
1
1
1
0.999999
1.00006
1.00156
1.01346
1.06191
1.15904
1.25345
1.31704
1.35065
1.3702
1.37578
1.37536
1.37445
1.37503
1.37903
1.38207
1.38546
1.38897
1.39241
1.39552
1.39859
1.40199
1.40553
1.40863
1.41253
1.41671
1.4206
1.42282
1.42289
1.42236
1.42143
1.42014
1.41891
1.41793
1.41719
1.41692
1.41687
1.41691
1.41697
1.41708
1.41723
1.41742
1.41766
1.41794
1.41828
1.41867
1.41913
1.4196
1.42022
1.42093
1.42141
1.42164
1.4218
1.42191
1.42195
1.42198
1.422
1.42192
1.4218
1.42164
1.42149
1.42138
1.42138
1.42143
1.42151
1.42169
1
1
1
1
1
1
1
1
1
1
1
1
1
1
1
1
0.999999
1.00003
1.00071
1.00683
1.03282
1.09104
1.16679
1.23428
1.28586
1.32083
1.34555
1.36311
1.37289
1.37859
1.38179
1.38415
1.38661
1.3895
1.39275
1.39634
1.4003
1.40452
1.4078
1.41162
1.41338
1.41432
1.41477
1.41481
1.41465
1.41445
1.41441
1.41458
1.41488
1.41503
1.4152
1.41551
1.41587
1.41639
1.41684
1.41738
1.41785
1.41825
1.41851
1.41869
1.41878
1.41894
1.419
1.41884
1.41873
1.41869
1.41863
1.41854
1.41843
1.41837
1.41836
1.41844
1.41864
1.41875
1.41895
1.41925
1.41954
1.41985
1.42014
1.42053
1
1
1
1
1
1
1
1
1
1
1
1
1
1
1
1
1
1
0.999999
1.00001
1.0002
1.00186
1.00983
1.03313
1.0766
1.13229
1.18824
1.23877
1.27905
1.30937
1.33107
1.34562
1.35549
1.36326
1.37003
1.37635
1.38238
1.38868
1.3949
1.40141
1.40686
1.41042
1.41227
1.41346
1.41449
1.41571
1.4169
1.41811
1.41916
1.41998
1.42058
1.42089
1.42067
1.42052
1.42014
1.41974
1.41934
1.41876
1.418
1.41723
1.41635
1.41542
1.41454
1.41383
1.41362
1.41365
1.41374
1.41393
1.41416
1.41447
1.41485
1.41525
1.41575
1.41649
1.41721
1.41785
1.41814
1.41824
1.41833
1.41843
1
1
1
1
1
1
1
1
1
1
1
1
1
1
1
1
1
1
1
1
1
1
1.00002
1.00024
1.00142
1.00568
1.01701
1.04023
1.07728
1.12433
1.17409
1.2205
1.26028
1.29315
1.32007
1.34206
1.36058
1.37619
1.38857
1.39773
1.40456
1.40887
1.41134
1.41301
1.41401
1.41481
1.41535
1.41593
1.41643
1.41675
1.41703
1.41723
1.41694
1.41651
1.41559
1.41383
1.41251
1.4112
1.41046
1.41028
1.41028
1.4104
1.41074
1.41118
1.41148
1.41193
1.41244
1.41312
1.41374
1.41435
1.41483
1.41516
1.41526
1.4154
1.41541
1.41532
1.41536
1.41523
1.41518
1.41515
1
1
1
1
1
1
1
1
1
1
1
1
1
1
1
1
1
1
1
1
1
1
1
1
1
1.00001
1.00007
1.00037
1.00152
1.005
1.01363
1.03099
1.05896
1.09577
1.13685
1.17747
1.21469
1.24744
1.27526
1.29818
1.31686
1.33209
1.34493
1.35587
1.36539
1.37324
1.37992
1.385
1.38909
1.39223
1.39419
1.39626
1.39714
1.39802
1.39893
1.39993
1.40291
1.40515
1.40739
1.40879
1.41077
1.41233
1.41382
1.41516
1.41583
1.41642
1.41617
1.41588
1.41561
1.41513
1.41447
1.41384
1.41308
1.41234
1.41159
1.41115
1.41123
1.4113
1.4115
1.41207
1
1
1
1
1
1
1
1
1
1
1
1
1
1
1
1
1
1
1
1
1
1
1
1
1
1
1
1
1
1.00001
1.00005
1.00023
1.00086
1.00257
1.00641
1.01361
1.02497
1.04041
1.05911
1.07991
1.10233
1.12641
1.152
1.17859
1.2055
1.23202
1.25738
1.28115
1.30287
1.32248
1.34002
1.35503
1.36872
1.37969
1.38982
1.39682
1.40171
1.40486
1.40803
1.40989
1.41133
1.41221
1.41269
1.41339
1.41331
1.41357
1.4132
1.41175
1.41058
1.40904
1.4081
1.4082
1.40807
1.40833
1.4088
1.40936
1.4099
1.41049
1.41129
1.41215
1
1
1
1
1
1
1
1
1
1
1
1
1
1
1
1
1
1
1
1
1
1
1
1
1
1
1
1
1
1
1
1
1
1
1.00001
1.00005
1.00014
1.00035
1.00073
1.00138
1.00243
1.00417
1.00704
1.01164
1.0188
1.02941
1.04422
1.06361
1.08742
1.11497
1.14516
1.17662
1.20825
1.23901
1.26785
1.29495
1.31761
1.33782
1.35309
1.36688
1.37573
1.38433
1.38832
1.39288
1.39442
1.39609
1.39716
1.39756
1.40054
1.40287
1.40523
1.40713
1.40895
1.41095
1.4122
1.41316
1.41329
1.41292
1.41294
1.41226
1
1
1
1
1
1
1
1
1
1
1
1
1
1
1
1
1
1
1
1
1
1
1
1
1
1
1
1
1
1
1
1
1
1
1
1
1
1
1
1
1
1.00001
1.00001
1.00003
1.00008
1.00018
1.00041
1.00087
1.00179
1.00352
1.00663
1.01197
1.02069
1.03402
1.05298
1.07815
1.10876
1.14372
1.18007
1.21614
1.25064
1.28144
1.30994
1.33304
1.35412
1.36947
1.38366
1.39339
1.4
1.40375
1.40706
1.40926
1.41008
1.41118
1.41133
1.41135
1.41097
1.40964
1.40831
1.4074
1
1
1
1
1
1
1
1
1
1
1
1
1
1
1
1
1
1
1
1
1
1
1
1
1
1
1
1
1
1
1
1
1
1
1
1
1
1
1
1
1
1
1
1
1
1
1
1
1
1
1.00001
1.00004
1.0001
1.00025
1.00062
1.00144
1.00316
1.0066
1.01301
1.02418
1.04193
1.06717
1.10011
1.13817
1.17922
1.2202
1.25816
1.29386
1.32262
1.34678
1.36397
1.37714
1.38561
1.39164
1.39428
1.39701
1.39734
1.39876
1.40084
1.40418
1
1
1
1
1
1
1
1
1
1
1
1
1
1
1
1
1
1
1
1
1
1
1
1
1
1
1
1
1
1
1
1
1
1
1
1
1
1
1
1
1
1
1
1
1
1
1
1
1
1
1
1
1
1
1
1
1
1.00001
1.00004
1.00014
1.0004
1.00108
1.0027
1.00625
1.01345
1.02672
1.04848
1.08024
1.12061
1.16684
1.2133
1.25657
1.29522
1.32706
1.35305
1.37269
1.38721
1.39815
1.40229
1.40543
1
1
1
1
1
1
1
1
1
1
1
1
1
1
1
1
1
1
1
1
1
1
1
1
1
1
1
1
1
1
1
1
1
1
1
1
1
1
1
1
1
1
1
1
1
1
1
1
1
1
1
1
1
1
1
1
1
1
1
1
1
1
1
1.00001
1.00005
1.00017
1.00057
1.00168
1.00448
1.01098
1.02435
1.04823
1.08461
1.13059
1.18272
1.23303
1.27993
1.31957
1.34742
1.37592
1
1
1
1
1
1
1
1
1
1
1
1
1
1
1
1
1
1
1
1
1
1
1
1
1
1
1
1
1
1
1
1
1
1
1
1
1
1
1
1
1
1
1
1
1
1
1
1
1
1
1
1
1
1
1
1
1
1
1
1
1
1
1
1
1
1
1
1
1.00001
1.00003
1.00015
1.00058
1.00196
1.00577
1.01522
1.03453
1.06885
1.11801
1.17078
1.26165
1
1
1
1
1
1
1
1
1
1
1
1
1
1
1
1
1
1
1
1
1
1
1
1
1
1
1
1
1
1
1
1
1
1
1
1
1
1
1
1
1
1
1
1
1
1
1
1
1
1
1
1
1
1
1
1
1
1
1
1
1
1
1
1
1
1
1
1
1
1
1
1
1
1.00001
1.00006
1.00031
1.00129
1.00458
1.01245
1.05738
1
1
1
1
1
1
1
1
1
1
1
1
1
1
1
1
1
1
1
1
1
1
1
1
1
1
1
1
1
1
1
1
1
1
1
1
1
1
1
1
1
1
1
1
1
1
1
1
1
1
1
1
1
1
1
1
1
1
1
1
1
1
1
1
1
1
1
1
1
1
1
1
1
1
1
1
1
1.00001
1.00004
1.00114
1
1
1
1
1
1
1
1
1
1
1
1
1
1
1
1
1
1
1
1
1
1
1
1
1
1
1
1
1
1
1
1
1
1
1
1
1
1
1
1
1
1
1
1
1
1
1
1
1
1
1
1
1
1
1
1
1
1
1
1
1
1
1
1
1
1
1
1
1
1
1
1
1
1
1
1
1
1
1
1
1
1
1
1
1
1
1
1
1
1
1
1
1
1
1
1
1
1
1
1
1
1
1
1
1
1
1
1
1
1
1
1
1
1
1
1
1
1
1
1
1
1
1
1
1
1
1
1
1
1
1
1
1
1
1
1
1
1
1
1
1
1
1
1
1
1
1
1
1
1
1
1
1
1
1
1
1
1
1
1
1
1
1
1
1
1
1
1
1
1
1
1
1
1
1
1
1
1
1
1
1
1
1
1
1
1
1
1
1
1
1
1
1
1
1
1
1
1
1
1
1
1
1
1
1
1
1
1
1
1
1
1
1
1
1
1
1
1
1
1
1
1
1
1
1
1
1
1
1
1
1
1
1
1
1
1
1
1
1
1
1
1
1
1
1
1
1
1
1
1
1
1
1
1
1
1
1
1
1
1
1
1
1
1
1
1
1
1
1
1
1
1
1
1
1
1
1
1
1
1
1
1
1
1
1
1
1
1
1
1
1
1
1
1
1
1
1
1
1
1
1
1
1
1
1
1
1
1
1
1
1
1
1
1
1
1
1
1
1
1
1
1
1
1
1
1
1
1
1
1
1
1
1
1
1
1
1
1
1
1
1
1
1
1
1
1
1
1
1
1
1
1
1
1
1
1
1
1
1
1
1
1
1
1
1
1
1
1
1
1
1
1
1
1
1
1
1
1
1
1
1
1
1
1
1
1
1
1
1
1
1
1
1
1
1
1
1
1
1
1
1
1
1
1
1
1
1
1
1
1
1
1
1
1
1
1
1
1
1
1
1
1
1
1
1
1
1
1
1
1
1
1
1
1
1
1
1
1
1
1
1
1
1
1
1
1
1
1
1
1
1
1
1
1
1
1
1
1
1
1
1
1
1
1
1
1
1
1
1
1
1
1
1
1
1
1
1
1
1
1
1
1
1
1
1
1
1
1
1
1
1
1
1
1
1
1
1
1
1
1
1
1
1
1
1
1
1
1
1
1
1
1
1
1
1
1
1
1
1
1
1
1
1
1
1
1
1
1
1
1
1
1
1
1
1
1
1
1
1
1
1
1
1
1
1
1
1
1
1
1
1
1
1
1
1
1
1
1
1
1
1
1
1
1
1
1
1
1
1
1
1
1
1
1
1
1
1
1
1
1
1
1
1
1
1
1
1
1
1
1
1
1
1
1
1
1
1
1
1
1
1
1
1
1
1
1
1
1
1
1
1
1
1
1
1
1
1
1
1
1
1
1
1
1
1
1
1
1
1
1
1
1
1
1
1
1
1
1
1
1
1
1
1
1
1
1
1
1
1
1
1
1
1
1
1
1
1
1
1
1
1
1
1
1
1
1
1
1
1
1
1
1
1
1
1
1
1
1
1
1
1
1
1
1
1
1
1
1
1
1
1
1
1
1
1
1
1
1
1
1
1
1
1
1
1
1
1
1
1
1
1
1
1
1
1
1
1
1
1
1
1
1
1
1
1
1
1
1
1
1
1
1
1
1
1
1
1
1
1
1
1
1
1
1
1
1
1
1
1
1
1
1
1
1
1
1
1
1
1
1
1
1
1
1
1
1
1
1
1
1
1
1
1
1
1
1
1
1
1
1
1
1
1
1
1
1
1
1
1
1
1
1
1
1
1
1
1
1
1
1
1
1
1
1
1
1
1
1
1
1
1
1
1
1
1
1
1
1
1
1
1
1
1
1
1
1
1
1
1
1
1
1
1
1
1
1
1
1
1
1
1
1
1
1
1
1
1
1
1
1
1
1
1
1
1
1
1
1
1
1
1
1
1
1
1
1
1
1
1
1
1
1
1
1
1
1
1
1
1
1
1
1
1
1
1
1
1
1
1
1
1
1
1
1
1
1
1
1
1
1
1
1
1
1
1
1
1
1
1
1
1
1
1
1
1
1
1
1
1
1
1
1
1
1
1
1
1
1
1
1
1
1
1
1
1
1
1
1
1
1
1
1
1
1
1
1
1
1
1
1
1
1
1
1
1
1
1
1
1
1
1
1
1
1
1
1
1
1
1
1
1
1
1
1
1
1
1
1
1
1
1
1
1
1
1
1
1
1
1
1
1
1
1
1
1
1
1
1
1
1
1
1
1
1
1
1
1
1
1
1
1
1
1
1
1
1
1
1
1
1
1
1
1
1
1
1
1
1
1
1
1
1
1
1
1
1
1
1
1
1
1
1
1
1
1
1
1
1
1
1
1
1
1
1
1
1
1
1
1
1
1
1
1
1
1
1
1
1
1
1
1
1
1
1
1
1
1
1
1
1
1
1
1
1
1
1
1
1
1
1
1
1
1
1
1
1
1
1
1
1
1
1
1
1
1
1
1
1
1
1
1
1
1
1
1
1
1
1
1
1
1
1
1
1
1
1
1
1
1
1
1
1
1
1
1
1
1
1
1
1
1
1
1
1
1
1
1
1
1
1
1
1
1
1
1
1
1
1
1
1
1
1
1
1
1
1
1
1
1
1
1
1
1
1
1
1
1
1
1
1
1
1
1
1
1
1
1
1
1
1
1
1
1
1
1
1
1
1
1
1
1
1
1
1
1
1
1
1
1
1
1
1
1
1
1
1
1
1
1
1
1
1
1
1
1
1
1
1
1
1
1
1
1
1
1
1
1
1
1
1
1
1
1
1
1
1
1
1
1
1
1
1
1
1
1
1
1
1
1
1
1
1
1
1
1
1
1
1
1
1
1
1
1
1
1
1
1
1
1
1
1
1
1
1
1
1
1
1
1
1
1
1
1
1
1
1
1
1
1
1
1
1
1
1
1
1
1
1
1
1
1
1
1
1
1
1
1
1
1
1
1
1
1
1
1
1
1
1
1
1
1
1
1
1
1
1
1
1
1
1
1
1
1
1
1
1
1
1
1
1
1
1
1
1
1
1
1
1
1
1
1
1
1
1
1
1
1
1
1
1
1
1
1
1
1
1
1
1
1
1
1
1
1
1
1
1
1
1
1
1
1
1
1
1
1
1
1
1
1
1
1
1
1
1
1
1
1
1
1
1
1
1
1
1
1
1
1
1
1
1
1
1
1
1
1
1
1
1
1
1
1
1
1
1
1
1
1
1
1
1
1
1
1
1
1
1
1
1
1
1
1
1
1
1
1
1
1
1
1
1
1
1
1
1
1
1
1
1
1
1
1
1
1
1
1
1
1
1
1
1
1
1
1
1
1
1
1
1
1
1
1
1
1
1
1
1
1
1
1
1
1
1
1
1
1
1
1
1
1
1
1
1
1
1
1
1
1
1
1
1
)
;

boundaryField
{
    inlet
    {
        type            fixedValue;
        value           uniform 1;
    }
    outlet
    {
        type            zeroGradient;
    }
    bottom
    {
        type            symmetryPlane;
    }
    top
    {
        type            symmetryPlane;
    }
    obstacle
    {
        type            zeroGradient;
    }
    defaultFaces
    {
        type            empty;
    }
}


// ************************************************************************* //
