/*--------------------------------*- C++ -*----------------------------------*\
| =========                 |                                                 |
| \\      /  F ield         | OpenFOAM: The Open Source CFD Toolbox           |
|  \\    /   O peration     | Version:  2206                                  |
|   \\  /    A nd           | Website:  www.openfoam.com                      |
|    \\/     M anipulation  |                                                 |
\*---------------------------------------------------------------------------*/
FoamFile
{
    version     2.0;
    format      ascii;
    arch        "LSB;label=32;scalar=64";
    class       volVectorField;
    location    "0.12";
    object      U;
}
// * * * * * * * * * * * * * * * * * * * * * * * * * * * * * * * * * * * * * //

dimensions      [0 1 -1 0 0 0 0];

internalField   nonuniform List<vector> 
75
(
(3.92929 -5.41552e-15 0)
(3.92929 -5.39135e-15 0)
(3.92929 2.10632e-14 0)
(3.92929 -4.578e-14 0)
(3.92929 -4.35088e-14 0)
(3.92929 -7.62632e-17 0)
(3.92929 -4.83375e-15 0)
(3.92929 -3.9286e-15 0)
(3.92929 -2.25031e-14 0)
(3.92929 -9.07751e-16 0)
(3.92929 4.42076e-15 0)
(3.92929 3.76148e-15 0)
(3.92929 -2.12091e-14 0)
(3.92929 9.54865e-14 0)
(3.92929 -2.87819e-14 0)
(3.92929 -4.76916e-15 0)
(3.92929 -7.21375e-16 0)
(3.92929 2.54419e-15 0)
(3.92929 2.35653e-14 0)
(3.92929 -2.28363e-13 0)
(3.92929 -5.70974e-15 0)
(3.92929 -5.54429e-15 0)
(3.92929 5.69265e-16 0)
(3.92929 1.56819e-15 0)
(3.92929 -2.50672e-14 0)
(3.88441 0.00348823 0)
(3.81673 0.0807926 0)
(3.75411 0.133834 0)
(3.67643 0.260456 0)
(3.61782 0.35655 0)
(3.53806 0.496566 0)
(3.47748 0.619313 0)
(3.43519 0.745171 0)
(3.37274 0.871694 0)
(3.396 0.943797 0)
(3.92799 0.00162178 0)
(3.91789 0.0194484 0)
(3.89299 0.0711334 0)
(3.8355 0.191682 0)
(3.76088 0.371848 0)
(3.62361 0.661044 0)
(3.54184 0.895112 0)
(3.35319 1.23629 0)
(3.248 1.14879 0)
(3.3535 1.05872 0)
(3.92931 -2.02944e-05 0)
(3.92924 0.000114947 0)
(3.92935 -0.000223842 0)
(3.92837 0.00210144 0)
(3.92436 0.011227 0)
(3.90467 0.0646851 0)
(3.86765 0.181908 0)
(3.77074 0.535687 0)
(3.62689 0.829674 0)
(3.49005 0.964134 0)
(3.92929 -3.53519e-06 0)
(3.92929 -3.54416e-06 0)
(3.9293 -9.30268e-06 0)
(3.92931 -5.74805e-05 0)
(3.92927 0.000183408 0)
(3.92923 0.0001002 0)
(3.92692 0.00770681 0)
(3.89945 0.104846 0)
(3.81005 0.506883 0)
(3.58907 0.895013 0)
(3.92929 -3.75746e-08 0)
(3.92929 -5.21624e-07 0)
(3.92929 -1.6235e-06 0)
(3.9293 -9.74086e-06 0)
(3.9293 -8.25842e-06 0)
(3.9293 -4.04159e-06 0)
(3.9293 -4.75385e-05 0)
(3.92773 0.00212605 0)
(3.88912 0.0713637 0)
(3.61635 0.381988 0)
)
;

boundaryField
{
    inlet
    {
        type            fixedValue;
        value           uniform (3.92929 0 0);
    }
    outlet
    {
        type            zeroGradient;
    }
    bottom
    {
        type            symmetryPlane;
    }
    top
    {
        type            symmetryPlane;
    }
    obstacle
    {
        type            slip;
    }
    defaultFaces
    {
        type            empty;
    }
}


// ************************************************************************* //
