/*--------------------------------*- C++ -*----------------------------------*\
| =========                 |                                                 |
| \\      /  F ield         | OpenFOAM: The Open Source CFD Toolbox           |
|  \\    /   O peration     | Version:  2206                                  |
|   \\  /    A nd           | Website:  www.openfoam.com                      |
|    \\/     M anipulation  |                                                 |
\*---------------------------------------------------------------------------*/
FoamFile
{
    version     2.0;
    format      ascii;
    arch        "LSB;label=32;scalar=64";
    class       volVectorField;
    location    "0.1";
    object      U;
}
// * * * * * * * * * * * * * * * * * * * * * * * * * * * * * * * * * * * * * //

dimensions      [0 1 -1 0 0 0 0];

internalField   nonuniform List<vector> 
4800
(
(5.74747 -7.85802e-15 0)
(5.74747 -2.8815e-14 0)
(5.74747 -2.74547e-14 0)
(5.74747 -4.46277e-14 0)
(5.74747 -5.25991e-14 0)
(5.74747 -4.33308e-14 0)
(5.74747 -3.05153e-14 0)
(5.74747 9.49631e-14 0)
(5.74747 1.48462e-13 0)
(5.74747 1.50736e-13 0)
(5.74747 4.87351e-14 0)
(5.74747 -4.08904e-14 0)
(5.74747 -4.42776e-14 0)
(5.74747 -3.08487e-14 0)
(5.74747 -2.33707e-15 0)
(5.74747 1.27655e-14 0)
(5.74747 8.97822e-15 0)
(5.74747 -1.77064e-14 0)
(5.74747 -5.53929e-14 0)
(5.74747 -5.15689e-14 0)
(5.74747 -5.29858e-14 0)
(5.74747 -2.79615e-14 0)
(5.74747 7.83469e-16 0)
(5.74747 -4.00302e-14 0)
(5.74747 -7.42795e-14 0)
(5.74747 -5.0222e-14 0)
(5.74747 2.55044e-14 0)
(5.74747 2.56211e-14 0)
(5.74747 1.06652e-14 0)
(5.74747 3.35725e-15 0)
(5.74747 -2.29173e-14 0)
(5.74747 -3.92234e-14 0)
(5.74747 -4.06404e-15 0)
(5.74747 2.28873e-14 0)
(5.74747 3.95668e-14 0)
(5.74747 5.24757e-14 0)
(5.74747 5.44294e-14 0)
(5.74747 6.79984e-14 0)
(5.74747 8.57515e-14 0)
(5.74747 9.0909e-14 0)
(5.74747 -2.86716e-16 0)
(5.74747 -2.1297e-14 0)
(5.74747 -3.72964e-14 0)
(5.74747 -5.98237e-14 0)
(5.74747 -5.38826e-14 0)
(5.74747 -1.10619e-14 0)
(5.74747 5.20623e-14 0)
(5.74747 1.20584e-13 0)
(5.74747 1.12993e-13 0)
(5.74747 1.08345e-13 0)
(5.74747 8.77852e-14 0)
(5.74747 5.79133e-14 0)
(5.74747 4.39009e-14 0)
(5.74747 3.23256e-14 0)
(5.74747 1.3669e-14 0)
(5.74747 1.76697e-16 0)
(5.74747 -1.67029e-14 0)
(5.74747 -5.31725e-14 0)
(5.74747 -4.81116e-14 0)
(5.74747 -6.0097e-14 0)
(5.74747 -7.05122e-14 0)
(5.74747 -7.34327e-14 0)
(5.74747 -5.43894e-14 0)
(5.74747 -1.92867e-14 0)
(5.74747 -4.34475e-14 0)
(5.74747 -3.74931e-14 0)
(5.74747 9.33828e-15 0)
(5.74747 -4.79616e-14 0)
(5.74747 -9.67534e-14 0)
(5.74747 -1.12009e-13 0)
(5.74747 -1.11243e-13 0)
(5.74747 -9.38695e-14 0)
(5.74747 9.8317e-15 0)
(5.74747 1.03778e-13 0)
(5.74747 1.65505e-13 0)
(5.74747 2.29876e-13 0)
(5.74747 2.28059e-13 0)
(5.74747 2.00195e-13 0)
(5.74747 2.33044e-13 0)
(5.74747 1.87389e-13 0)
(5.74747 -3.25723e-15 0)
(5.74747 -7.46796e-15 0)
(5.74747 -1.64495e-14 0)
(5.74747 -3.11787e-14 0)
(5.74747 -2.75448e-14 0)
(5.74747 -2.39708e-15 0)
(5.74747 -6.46778e-16 0)
(5.74747 -1.79698e-15 0)
(5.74747 3.46727e-15 0)
(5.74747 1.95034e-15 0)
(5.74747 3.99402e-14 0)
(5.74747 2.92784e-14 0)
(5.74747 -9.8317e-15 0)
(5.74747 -3.70731e-14 0)
(5.74747 -1.03968e-13 0)
(5.74747 -1.29916e-13 0)
(5.74747 -9.18425e-14 0)
(5.74747 -1.53126e-14 0)
(5.74747 1.00884e-14 0)
(5.74747 -5.85768e-15 0)
(5.74747 -3.18288e-14 0)
(5.74747 -5.04987e-14 0)
(5.74747 -5.46328e-14 0)
(5.74747 9.4783e-15 0)
(5.74747 7.79668e-14 0)
(5.74747 6.20741e-14 0)
(5.74747 7.77201e-14 0)
(5.74747 3.92168e-14 0)
(5.74747 -5.799e-14 0)
(5.74747 -7.66332e-14 0)
(5.74747 -7.34594e-14 0)
(5.74747 -7.03321e-14 0)
(5.74747 -1.3569e-15 0)
(5.74747 4.33708e-14 0)
(5.74747 9.31528e-14 0)
(5.74747 2.57468e-13 0)
(5.74747 3.07877e-13 0)
(5.74747 2.52924e-13 0)
(5.74747 2.44129e-13 0)
(5.74747 1.79093e-13 0)
(5.74747 -3.86733e-15 0)
(5.74747 8.18141e-15 0)
(5.74747 1.99368e-15 0)
(5.74747 -7.66799e-15 0)
(5.74747 -1.56827e-14 0)
(5.74747 -2.16637e-14 0)
(5.74747 -1.98501e-14 0)
(5.74747 -5.95436e-15 0)
(5.74747 -4.8075e-15 0)
(5.74747 -4.00402e-15 0)
(5.74747 3.38192e-14 0)
(5.74747 5.43427e-14 0)
(5.74747 4.40743e-14 0)
(5.74747 5.26091e-15 0)
(5.74747 -5.51462e-14 0)
(5.74747 -6.78184e-14 0)
(5.74747 -8.83819e-15 0)
(5.74747 5.62664e-14 0)
(5.74747 5.4286e-14 0)
(5.74747 2.99118e-14 0)
(5.74747 -2.42709e-15 0)
(5.74747 -2.10836e-14 0)
(5.74747 -5.00886e-14 0)
(5.74747 -7.45262e-14 0)
(5.74747 -5.11288e-14 0)
(5.74747 3.835e-14 0)
(5.74747 4.39709e-14 0)
(5.74747 1.75964e-14 0)
(5.74747 2.49043e-15 0)
(5.74747 -9.14825e-15 0)
(5.74747 -9.29527e-14 0)
(5.74747 -1.78247e-13 0)
(5.74747 -1.746e-13 0)
(5.74747 -1.25415e-13 0)
(5.74747 8.06473e-15 0)
(5.74747 7.07689e-14 0)
(5.74747 6.89019e-14 0)
(5.74747 1.35593e-13 0)
(5.74747 1.39374e-13 0)
(5.74747 1.55697e-13 0)
(5.74747 2.1487e-14 0)
(5.74747 3.81099e-14 0)
(5.74747 2.27439e-14 0)
(5.74747 -3.32057e-15 0)
(5.74747 1.06185e-14 0)
(5.74747 5.14422e-15 0)
(5.74747 1.64028e-15 0)
(5.74747 5.02087e-15 0)
(5.74747 1.40324e-14 0)
(5.74747 1.31556e-14 0)
(5.74747 1.42691e-14 0)
(5.74747 1.48659e-14 0)
(5.74747 4.27607e-14 0)
(5.74747 8.43746e-14 0)
(5.74747 9.73735e-14 0)
(5.74747 1.08572e-13 0)
(5.74747 6.87285e-14 0)
(5.74747 4.29041e-14 0)
(5.74747 4.06637e-14 0)
(5.74747 5.96036e-14 0)
(5.74747 7.22058e-14 0)
(5.74747 8.81085e-14 0)
(5.74747 1.18587e-14 0)
(5.74747 -1.1612e-14 0)
(5.74747 -2.82049e-14 0)
(5.74747 2.5271e-14 0)
(5.74747 -4.7995e-14 0)
(5.74747 -8.17975e-14 0)
(5.74747 -7.41295e-14 0)
(5.74747 -8.92387e-14 0)
(5.74747 -1.62538e-13 0)
(5.74747 -1.98931e-13 0)
(5.74747 -2.04782e-13 0)
(5.74747 -1.71973e-13 0)
(5.74747 -9.26593e-14 0)
(5.74747 -5.90702e-14 0)
(5.74747 -2.79515e-14 0)
(5.74747 6.24441e-15 0)
(5.74747 3.65096e-14 0)
(5.74747 1.44596e-14 0)
(5.74747 -1.33356e-17 0)
(5.74747 3.48393e-15 0)
(5.74747 -2.04035e-14 0)
(5.74747 -2.45109e-14 0)
(5.74747 -3.72198e-14 0)
(5.74747 -2.34641e-14 0)
(5.74747 -7.87803e-15 0)
(5.74747 -7.83135e-15 0)
(5.74747 2.23705e-15 0)
(5.74747 1.1832e-14 0)
(5.74747 -1.22121e-14 0)
(5.74747 -2.80015e-14 0)
(5.74747 -3.12321e-14 0)
(5.74747 -1.91066e-14 0)
(5.74747 -1.31356e-14 0)
(5.74747 -8.94488e-15 0)
(5.74747 -6.47445e-15 0)
(5.74747 -1.70029e-15 0)
(5.74747 -3.75065e-15 0)
(5.74747 -3.02919e-14 0)
(5.74747 -8.63116e-14 0)
(5.74747 -1.98934e-14 0)
(5.74747 3.07286e-14 0)
(5.74747 6.83485e-14 0)
(5.74747 8.05639e-14 0)
(5.74747 1.42125e-14 0)
(5.74747 -4.54912e-14 0)
(5.74747 -4.48944e-14 0)
(5.74747 -4.14238e-14 0)
(5.74747 -3.74565e-14 0)
(5.74747 -3.50627e-14 0)
(5.74747 -5.04921e-14 0)
(5.74747 -3.67363e-14 0)
(5.74747 -6.49612e-14 0)
(5.74747 -1.40368e-13 0)
(5.74747 -1.39751e-13 0)
(5.74747 -7.20658e-14 0)
(5.74747 -5.33392e-14 0)
(5.74747 -6.54913e-14 0)
(5.74747 -5.05534e-14 0)
(5.74747 -5.17423e-15 0)
(5.74747 -2.1287e-14 0)
(5.74747 -2.68846e-14 0)
(5.74747 9.30161e-15 0)
(5.74747 1.22088e-14 0)
(5.74747 -8.13474e-16 0)
(5.74747 3.69564e-14 0)
(5.74747 5.17523e-14 0)
(5.74747 1.33356e-15 0)
(5.74747 -2.2914e-14 0)
(5.74747 -7.36927e-14 0)
(5.74747 -5.5853e-14 0)
(5.74747 -7.47796e-15 0)
(5.74747 -8.2881e-15 0)
(5.74747 -3.90234e-14 0)
(5.74747 -1.01151e-14 0)
(5.74747 3.17788e-14 0)
(5.74747 -1.81131e-14 0)
(5.74747 -5.11122e-14 0)
(5.74747 -4.86051e-14 0)
(5.74747 -2.41642e-14 0)
(5.74747 -3.54061e-14 0)
(5.74747 -7.70433e-14 0)
(5.74747 -7.76834e-14 0)
(5.74747 -7.23492e-14 0)
(5.74747 -6.08972e-14 0)
(5.74747 -4.42743e-14 0)
(5.74747 -5.3976e-15 0)
(5.74747 7.3216e-14 0)
(5.74747 1.06815e-13 0)
(5.74747 1.63081e-13 0)
(5.74747 2.39141e-14 0)
(5.74747 -1.25495e-13 0)
(5.74747 -1.30176e-13 0)
(5.74747 -1.49829e-13 0)
(5.74747 -1.9497e-13 0)
(5.74747 -1.5328e-13 0)
(5.74747 -8.30577e-14 0)
(5.74747 -9.52598e-14 0)
(5.74747 -9.77293e-14 0)
(5.74747 -9.98839e-15 0)
(5.74747 -3.01052e-14 0)
(5.74747 1.62261e-14 0)
(5.74747 4.33175e-14 0)
(5.74747 5.34659e-14 0)
(5.74747 2.13137e-14 0)
(5.74747 -1.70796e-14 0)
(5.74747 -2.49243e-14 0)
(5.74747 -5.83101e-14 0)
(5.74747 -8.93554e-14 0)
(5.74747 -9.0789e-14 0)
(5.74747 -6.29475e-14 0)
(5.74747 -2.07969e-14 0)
(5.74747 1.89466e-14 0)
(5.74747 1.30022e-14 0)
(5.74747 1.06652e-14 0)
(5.74747 -5.29425e-15 0)
(5.74747 -6.69482e-14 0)
(5.74747 -6.01004e-14 0)
(5.74747 -3.81366e-14 0)
(5.74747 -4.20239e-14 0)
(5.74747 -8.64749e-14 0)
(5.74747 -1.45208e-13 0)
(5.74747 -1.77831e-13 0)
(5.74747 -1.51473e-13 0)
(5.74747 -5.26991e-14 0)
(5.74747 -1.85965e-14 0)
(5.74747 -2.60945e-14 0)
(5.74747 -2.24939e-14 0)
(5.74747 1.56694e-16 0)
(5.74747 2.80949e-14 0)
(5.74747 -4.20406e-15 0)
(5.74747 -3.05653e-14 0)
(5.74747 -2.24039e-14 0)
(5.74747 -1.23055e-14 0)
(5.74747 -5.35959e-14 0)
(5.74747 -1.52196e-13 0)
(5.74747 -2.1348e-13 0)
(5.74747 -2.02505e-13 0)
(5.74747 -1.75017e-13 0)
(5.74747 -4.60079e-15 0)
(5.74747 1.08185e-14 0)
(5.74747 3.32791e-14 0)
(5.74747 3.19755e-14 0)
(5.74747 -2.75381e-15 0)
(5.74747 -1.32423e-14 0)
(5.74747 -2.66479e-14 0)
(5.74747 -2.31673e-14 0)
(5.74747 -3.91968e-14 0)
(5.74747 -5.08121e-14 0)
(5.74747 -2.27373e-14 0)
(5.74747 5.91102e-15 0)
(5.74747 1.10686e-15 0)
(5.74747 -3.02086e-14 0)
(5.74747 -3.78532e-14 0)
(5.74747 -1.52023e-13 0)
(5.74747 -1.85355e-13 0)
(5.74747 -1.44278e-13 0)
(5.74747 -1.24418e-13 0)
(5.74747 -1.03705e-13 0)
(5.74747 -1.12786e-13 0)
(5.74747 -1.29472e-13 0)
(5.74747 -1.18547e-13 0)
(5.74747 -7.94371e-14 0)
(5.74747 -3.54261e-14 0)
(5.74747 1.27755e-14 0)
(5.74747 3.89201e-14 0)
(5.74747 -3.87e-14 0)
(5.74747 -8.77018e-14 0)
(5.74747 -7.21758e-14 0)
(5.74747 -5.45428e-15 0)
(5.74747 4.98853e-14 0)
(5.74747 6.79351e-14 0)
(5.74747 6.02171e-14 0)
(5.74747 8.98822e-14 0)
(5.74747 6.61114e-15 0)
(5.74747 -1.19907e-13 0)
(5.74747 -1.5518e-13 0)
(5.74747 -1.64318e-13 0)
(5.74747 -1.29489e-13 0)
(5.74747 1.31356e-15 0)
(5.74747 1.06685e-15 0)
(5.74747 -1.75397e-14 0)
(5.74747 -1.23055e-14 0)
(5.74747 -2.71814e-14 0)
(5.74747 -4.13271e-14 0)
(5.74747 -5.11088e-14 0)
(5.74747 -5.66031e-14 0)
(5.74747 -5.92169e-14 0)
(5.74747 -4.67614e-14 0)
(5.74747 -4.6138e-14 0)
(5.74747 -3.36791e-14 0)
(5.74747 -1.02878e-13 0)
(5.74747 -1.5378e-13 0)
(5.74747 -1.28249e-13 0)
(5.74747 -1.5258e-13 0)
(5.74747 -2.14007e-13 0)
(5.74747 -2.19955e-13 0)
(5.74747 -1.73257e-13 0)
(5.74747 -7.26592e-14 0)
(5.74747 -4.94252e-14 0)
(5.74747 -2.08836e-14 0)
(5.74747 1.7513e-14 0)
(5.74747 1.08052e-14 0)
(5.74747 -1.89466e-14 0)
(5.74747 -2.93484e-14 0)
(5.74747 9.66834e-16 0)
(5.74747 3.17155e-14 0)
(5.74747 1.3339e-14 0)
(5.74747 -1.12619e-14 0)
(5.74747 2.10336e-14 0)
(5.74747 4.47277e-14 0)
(5.74747 3.51427e-14 0)
(5.74747 2.84082e-14 0)
(5.74747 1.88899e-14 0)
(5.74747 -1.16687e-16 0)
(5.74747 -5.69432e-15 0)
(5.74747 4.92718e-14 0)
(5.74747 2.55511e-14 0)
(5.74747 -6.75932e-14 0)
(5.74747 1.1502e-15 0)
(5.74747 -2.1237e-15 0)
(5.74747 -1.951e-14 0)
(5.74747 -2.09703e-14 0)
(5.74747 -3.90467e-14 0)
(5.74747 -4.21106e-14 0)
(5.74747 -5.23724e-14 0)
(5.74747 -1.48126e-13 0)
(5.74747 -1.82835e-13 0)
(5.74747 -1.5427e-13 0)
(5.74747 -1.09579e-13 0)
(5.74747 -1.15023e-13 0)
(5.74747 -1.24838e-13 0)
(5.74747 -1.05075e-13 0)
(5.74747 -6.01304e-14 0)
(5.74747 -1.82098e-14 0)
(5.74747 -4.90351e-14 0)
(5.74747 -6.48879e-14 0)
(5.74747 -4.93519e-14 0)
(5.74747 -3.6843e-14 0)
(5.74747 3.2779e-14 0)
(5.74747 3.75331e-14 0)
(5.74747 3.26723e-14 0)
(5.74747 -1.948e-14 0)
(5.74747 -1.05895e-13 0)
(5.74747 -1.3382e-13 0)
(5.74747 -1.22024e-13 0)
(5.74747 -6.54746e-14 0)
(5.74747 2.45076e-14 0)
(5.74747 3.63963e-14 0)
(5.74747 -3.71564e-14 0)
(5.74747 -5.13489e-14 0)
(5.74747 -2.19171e-14 0)
(5.74747 -4.04203e-14 0)
(5.74747 -7.16057e-14 0)
(5.74747 -3.05819e-14 0)
(5.74747 7.13123e-15 0)
(5.74747 8.26743e-14 0)
(5.74747 7.66332e-14 0)
(5.74747 4.07469e-14 0)
(5.74747 1.11486e-14 0)
(5.74747 9.8517e-15 0)
(5.74747 -8.54481e-15 0)
(5.74747 -5.55629e-14 0)
(5.74747 -4.99853e-14 0)
(5.74747 -1.36324e-14 0)
(5.74747 -3.23623e-14 0)
(5.74747 -9.97506e-15 0)
(5.74747 2.37074e-14 0)
(5.74747 4.35409e-15 0)
(5.74747 -6.91119e-15 0)
(5.74747 -3.69497e-14 0)
(5.74747 -3.21522e-14 0)
(5.74747 3.13121e-14 0)
(5.74747 8.16574e-14 0)
(5.74747 8.80885e-14 0)
(5.74747 6.06871e-14 0)
(5.74747 1.42058e-14 0)
(5.74747 3.78732e-15 0)
(5.74747 -1.73997e-14 0)
(5.74747 -1.49159e-14 0)
(5.74747 -3.53628e-14 0)
(5.74747 -4.11504e-14 0)
(5.74747 -1.01484e-13 0)
(5.74747 -9.77302e-14 0)
(5.74747 -9.64033e-14 0)
(5.74747 -8.30543e-14 0)
(5.74747 1.21021e-14 0)
(5.74747 6.80217e-14 0)
(5.74747 6.93053e-14 0)
(5.74747 -2.8955e-14 0)
(5.74747 -2.88717e-14 0)
(5.74747 -1.42058e-14 0)
(5.74747 1.1552e-14 0)
(5.74747 3.53961e-14 0)
(5.74747 4.14472e-14 0)
(5.74747 4.25507e-14 0)
(5.74747 -1.94234e-14 0)
(5.74747 2.10036e-15 0)
(5.74747 2.26914e-14 0)
(5.74747 -1.64695e-15 0)
(5.74747 -1.36257e-14 0)
(5.74747 -1.23888e-14 0)
(5.74747 1.5336e-16 0)
(5.74747 2.28306e-14 0)
(5.74747 3.10387e-14 0)
(5.74747 9.36028e-14 0)
(5.74747 1.5501e-13 0)
(5.74747 1.52376e-13 0)
(5.74747 1.13433e-13 0)
(5.74747 1.09782e-13 0)
(5.74747 1.04368e-13 0)
(5.74747 4.91151e-14 0)
(5.74747 -2.00568e-14 0)
(5.74747 -2.8705e-14 0)
(5.74747 3.03386e-15 0)
(5.74747 2.38475e-14 0)
(5.74747 -3.24623e-14 0)
(5.74747 -7.4993e-14 0)
(5.74747 -9.08724e-14 0)
(5.74747 -1.30869e-13 0)
(5.74747 -1.22705e-13 0)
(5.74747 -1.69829e-14 0)
(5.74747 3.99636e-14 0)
(5.74747 4.94919e-14 0)
(5.74747 8.63249e-14 0)
(5.74747 3.48927e-14 0)
(5.74747 -9.36828e-15 0)
(5.74747 -1.78297e-14 0)
(5.74747 -1.34257e-14 0)
(5.74747 2.20038e-16 0)
(5.74747 3.15088e-14 0)
(5.74747 3.4686e-14 0)
(5.74747 6.08272e-14 0)
(5.74747 1.03445e-13 0)
(5.74747 1.22748e-13 0)
(5.74747 8.03905e-14 0)
(5.74747 2.06302e-14 0)
(5.74747 2.46876e-14 0)
(5.74747 9.43732e-14 0)
(5.74747 -4.20073e-16 0)
(5.74747 1.33323e-14 0)
(5.74747 3.05519e-14 0)
(5.74747 2.84149e-14 0)
(5.74747 3.30624e-14 0)
(5.74747 4.89451e-14 0)
(5.74747 8.84219e-14 0)
(5.74747 8.81085e-14 0)
(5.74747 9.42329e-14 0)
(5.74747 1.10912e-13 0)
(5.74747 1.19047e-13 0)
(5.74747 1.04478e-13 0)
(5.74747 1.12339e-13 0)
(5.74747 4.31475e-14 0)
(5.74747 4.37142e-14 0)
(5.74747 3.24589e-14 0)
(5.74747 1.19241e-13 0)
(5.74747 1.54657e-13 0)
(5.74747 1.17564e-13 0)
(5.74747 3.06386e-15 0)
(5.74747 -1.07499e-13 0)
(5.74747 -4.51811e-14 0)
(5.74747 7.1659e-14 0)
(5.74747 1.7496e-13 0)
(5.74747 2.06002e-13 0)
(5.74747 1.68422e-13 0)
(5.74747 1.37384e-13 0)
(5.74747 3.56028e-14 0)
(5.74747 -3.4986e-14 0)
(5.74747 -4.8295e-14 0)
(5.74747 -3.85567e-14 0)
(5.74747 1.07272e-13 0)
(5.74747 1.59901e-13 0)
(5.74747 1.61981e-13 0)
(5.74747 1.19957e-13 0)
(5.74747 6.93686e-14 0)
(5.74747 5.28458e-14 0)
(5.74747 3.6903e-14 0)
(5.74747 -2.62212e-14 0)
(5.74747 -2.04384e-14 0)
(5.74747 1.81698e-15 0)
(5.74747 2.45376e-15 0)
(5.74747 4.32408e-15 0)
(5.74747 7.72467e-15 0)
(5.74747 1.73397e-14 0)
(5.74747 2.66313e-14 0)
(5.74747 6.99121e-15 0)
(5.74747 5.801e-15 0)
(5.74747 7.70433e-14 0)
(5.74747 1.60244e-13 0)
(5.74747 1.41611e-13 0)
(5.74747 1.09319e-13 0)
(5.74747 1.11726e-13 0)
(5.74747 1.10262e-13 0)
(5.74747 1.5474e-13 0)
(5.74747 1.541e-13 0)
(5.74747 9.88471e-14 0)
(5.74747 1.05272e-13 0)
(5.74747 1.17737e-13 0)
(5.74747 9.12824e-14 0)
(5.74747 8.45479e-14 0)
(5.74747 5.2009e-14 0)
(5.74747 2.45342e-14 0)
(5.74747 1.68462e-14 0)
(5.74747 7.53497e-14 0)
(5.74747 9.21026e-14 0)
(5.74747 1.20531e-13 0)
(5.74747 1.5551e-13 0)
(5.74747 1.22905e-13 0)
(5.74747 5.78433e-14 0)
(5.74747 4.42076e-15 0)
(5.74747 -2.04002e-14 0)
(5.74747 -1.82798e-14 0)
(5.74747 4.28007e-14 0)
(5.74747 1.10792e-13 0)
(5.74747 1.05355e-13 0)
(5.74747 5.29691e-14 0)
(5.74747 4.81683e-14 0)
(5.74747 3.02986e-14 0)
(5.74747 1.54371e-14 0)
(5.74747 -3.79732e-15 0)
(5.74747 -5.43427e-15 0)
(5.74747 -2.64046e-15 0)
(5.74747 3.0732e-14 0)
(5.74747 2.61979e-14 0)
(5.74747 2.7018e-14 0)
(5.74747 1.72563e-14 0)
(5.74747 2.79515e-14 0)
(5.74747 2.97318e-14 0)
(5.74747 4.68814e-14 0)
(5.74747 4.16172e-14 0)
(5.74747 3.866e-14 0)
(5.74747 1.83832e-14 0)
(5.74747 9.36962e-14 0)
(5.74747 1.03911e-13 0)
(5.74747 1.19197e-13 0)
(5.74747 7.94037e-14 0)
(5.74747 7.23925e-14 0)
(5.74747 1.04378e-13 0)
(5.74747 1.50849e-13 0)
(5.74747 2.17924e-13 0)
(5.74747 1.31159e-13 0)
(5.74747 1.16723e-13 0)
(5.74747 6.74683e-14 0)
(5.74747 3.79999e-14 0)
(5.74747 1.10959e-13 0)
(5.74747 1.04628e-13 0)
(5.74747 1.09719e-13 0)
(5.74747 1.64092e-13 0)
(5.74747 1.77074e-13 0)
(5.74747 1.54193e-13 0)
(5.74747 7.20824e-14 0)
(5.74747 1.85765e-14 0)
(5.74747 8.4748e-15 0)
(5.74747 3.25356e-14 0)
(5.74747 3.31257e-14 0)
(5.74747 4.05537e-14 0)
(5.74747 6.17607e-14 0)
(5.74747 1.06672e-13 0)
(5.74747 5.79835e-14 0)
(5.74747 1.30689e-15 0)
(5.74747 6.71783e-15 0)
(5.74747 6.48445e-15 0)
(5.74747 6.09105e-15 0)
(5.74747 2.38708e-15 0)
(5.74747 4.33742e-15 0)
(5.74747 -3.40726e-15 0)
(5.74747 -2.20471e-14 0)
(5.74747 -2.20705e-14 0)
(5.74747 -3.38525e-14 0)
(5.74747 -3.96669e-14 0)
(5.74747 8.90154e-15 0)
(5.74747 4.19739e-15 0)
(5.74747 6.69116e-15 0)
(5.74747 9.13491e-16 0)
(5.74747 -1.35957e-14 0)
(5.74747 -4.72915e-14 0)
(5.74747 -3.38725e-14 0)
(5.74747 -2.04035e-14 0)
(5.74747 1.28756e-14 0)
(5.74747 1.02581e-13 0)
(5.74747 1.46192e-13 0)
(5.74747 1.00631e-13 0)
(5.74747 8.78018e-14 0)
(5.74747 2.86283e-14 0)
(5.74747 1.13786e-14 0)
(5.74747 1.04585e-14 0)
(5.74747 -1.90433e-14 0)
(5.74747 2.57011e-14 0)
(5.74747 5.59897e-14 0)
(5.74747 8.91854e-14 0)
(5.74747 8.59548e-14 0)
(5.74747 2.03202e-14 0)
(5.74747 -5.67631e-14 0)
(5.74747 -7.60998e-14 0)
(5.74747 -5.56496e-14 0)
(5.74747 -3.78799e-14 0)
(5.74747 -2.46376e-14 0)
(5.74747 3.62963e-14 0)
(5.74747 1.39197e-13 0)
(5.74747 1.91033e-15 0)
(5.74747 -6.46778e-16 0)
(5.74747 -2.95384e-15 0)
(5.74747 -1.48926e-14 0)
(5.74747 1.57761e-14 0)
(5.74747 3.11954e-14 0)
(5.74747 5.6093e-14 0)
(5.74747 3.37992e-14 0)
(5.74747 -9.88837e-15 0)
(5.74747 -2.23872e-14 0)
(5.74747 -3.6563e-14 0)
(5.74747 -7.99605e-14 0)
(5.74747 -8.45713e-14 0)
(5.74747 -5.09555e-14 0)
(5.74747 -5.64831e-14 0)
(5.74747 -7.58231e-14 0)
(5.74747 -4.95019e-14 0)
(5.74747 -3.79866e-14 0)
(5.74747 -6.98787e-14 0)
(5.74747 -7.95604e-14 0)
(5.74747 -7.95004e-14 0)
(5.74747 -4.97686e-14 0)
(5.74747 2.23139e-14 0)
(5.74747 3.66763e-14 0)
(5.74747 -5.76433e-15 0)
(5.74747 -5.97003e-14 0)
(5.74747 -5.07754e-14 0)
(5.74747 -5.73899e-14 0)
(5.74747 -8.80585e-14 0)
(5.74747 -9.97806e-14 0)
(5.74747 -8.03572e-14 0)
(5.74747 -3.41759e-14 0)
(5.74747 -5.54196e-14 0)
(5.74747 -7.9397e-14 0)
(5.74747 -1.01498e-13 0)
(5.74747 -2.29506e-14 0)
(5.74747 6.23574e-14 0)
(5.74747 1.34283e-13 0)
(5.74747 1.86592e-13 0)
(5.74747 2.31834e-13 0)
(5.74747 -2.91717e-15 0)
(5.74747 -3.91734e-15 0)
(5.74747 -1.5566e-14 0)
(5.74747 -2.82415e-14 0)
(5.74747 -1.89766e-14 0)
(5.74747 -1.82532e-14 0)
(5.74747 2.67446e-14 0)
(5.74747 5.21923e-14 0)
(5.74747 3.72131e-14 0)
(5.74747 -8.99489e-15 0)
(5.74747 -2.62079e-14 0)
(5.74747 -7.19491e-14 0)
(5.74747 -7.77834e-14 0)
(5.74747 -1.05388e-13 0)
(5.74747 -1.03358e-13 0)
(5.74747 -9.88137e-14 0)
(5.74747 -3.75198e-14 0)
(5.74747 -1.91233e-14 0)
(5.74747 -3.32624e-14 0)
(5.74747 -6.00004e-14 0)
(5.74747 -7.49896e-14 0)
(5.74747 -1.06662e-13 0)
(5.74747 -6.40344e-14 0)
(5.74747 -6.5568e-14 0)
(5.74747 -9.98139e-14 0)
(5.74747 -1.29476e-13 0)
(5.74747 -1.32096e-13 0)
(5.74747 -8.67516e-14 0)
(5.74747 -7.22091e-14 0)
(5.74747 -7.58564e-14 0)
(5.74747 -6.80217e-14 0)
(5.74747 -6.2044e-15 0)
(5.74747 4.24273e-14 0)
(5.74747 4.41976e-14 0)
(5.74747 2.20838e-14 0)
(5.74747 -3.53394e-16 0)
(5.74747 3.58229e-14 0)
(5.74747 5.68598e-14 0)
(5.74747 -2.03335e-14 0)
(5.74747 -7.78138e-15 0)
(5.74747 7.60131e-16 0)
(5.74747 3.36725e-15 0)
(5.74747 -4.46744e-16 0)
(5.74747 -1.1762e-14 0)
(5.74747 -2.46876e-14 0)
(5.74747 -3.3039e-15 0)
(5.74747 1.3389e-14 0)
(5.74747 1.44925e-14 0)
(5.74747 -2.63712e-14 0)
(5.74747 -1.01751e-13 0)
(5.74747 -1.14283e-13 0)
(5.74747 -7.23592e-14 0)
(5.74747 -6.71416e-14 0)
(5.74747 -1.14736e-13 0)
(5.74747 -1.19827e-13 0)
(5.74747 -1.29752e-13 0)
(5.74747 -1.26382e-13 0)
(5.74747 -8.76351e-14 0)
(5.74747 -3.6873e-14 0)
(5.74747 -1.06985e-14 0)
(5.74747 -1.3519e-14 0)
(5.74747 -4.08037e-14 0)
(5.74747 -1.32963e-13 0)
(5.74747 -1.61381e-13 0)
(5.74747 -1.78031e-13 0)
(5.74747 -1.66289e-13 0)
(5.74747 -1.37007e-13 0)
(5.74747 -3.88767e-14 0)
(5.74747 -2.87883e-14 0)
(5.74747 -2.85183e-14 0)
(5.74747 -4.30341e-14 0)
(5.74747 1.62695e-15 0)
(5.74747 6.52346e-14 0)
(5.74747 7.14423e-14 0)
(5.74747 7.12323e-14 0)
(5.74747 3.52661e-14 0)
(5.74747 2.10003e-14 0)
(5.74747 -1.50793e-14 0)
(5.74747 -8.26843e-14 0)
(5.74747 -1.48796e-13 0)
(5.74747 1.62361e-15 0)
(5.74747 9.92171e-15 0)
(5.74747 4.50911e-14 0)
(5.74747 5.81567e-14 0)
(5.74747 5.10922e-14 0)
(5.74747 3.47627e-14 0)
(5.74747 -4.15172e-14 0)
(5.74747 -8.14507e-14 0)
(5.74747 -1.03124e-13 0)
(5.74747 -8.39745e-14 0)
(5.74747 -6.99287e-14 0)
(5.74747 -6.47645e-14 0)
(5.74747 -8.37445e-14 0)
(5.74747 -1.21818e-13 0)
(5.74747 -1.65382e-13 0)
(5.74747 -1.33963e-13 0)
(5.74747 -7.81935e-14 0)
(5.74747 -4.43577e-14 0)
(5.74747 -4.87384e-14 0)
(5.74747 -5.20223e-14 0)
(5.74747 -3.43893e-14 0)
(5.74747 -1.3339e-14 0)
(5.74747 -6.09605e-14 0)
(5.74747 -7.97771e-14 0)
(5.74747 -6.03638e-14 0)
(5.74747 -1.79098e-14 0)
(5.74747 2.04035e-15 0)
(5.74747 1.53927e-14 0)
(5.74747 7.29159e-14 0)
(5.74747 1.07572e-13 0)
(5.74747 5.71565e-14 0)
(5.74747 -2.94418e-14 0)
(5.74747 -4.72482e-14 0)
(5.74747 -4.74915e-14 0)
(5.74747 -4.28407e-14 0)
(5.74747 -3.66597e-14 0)
(5.74747 -3.94368e-14 0)
(5.74747 -4.60746e-15 0)
(5.74747 1.99634e-14 0)
(5.74747 -1.30635e-14 0)
(5.74747 1.04718e-14 0)
(5.74747 1.19087e-14 0)
(5.74747 2.3144e-14 0)
(5.74747 2.36241e-14 0)
(5.74747 1.27555e-14 0)
(5.74747 -4.38242e-14 0)
(5.74747 -6.92886e-14 0)
(5.74747 -5.51929e-14 0)
(5.74747 -3.86333e-14 0)
(5.74747 1.26655e-14 0)
(5.74747 2.54344e-14 0)
(5.74747 4.79416e-15 0)
(5.74747 -7.83469e-16 0)
(5.74747 -1.89499e-14 0)
(5.74747 -2.00068e-14 0)
(5.74747 -1.70029e-15 0)
(5.74747 -3.70397e-15 0)
(5.74747 -1.88032e-14 0)
(5.74747 -3.0902e-14 0)
(5.74747 -5.37559e-14 0)
(5.74747 1.06618e-14 0)
(5.74747 5.25124e-14 0)
(5.74747 4.98453e-14 0)
(5.74747 7.97771e-14 0)
(5.74747 1.48519e-13 0)
(5.74747 1.40721e-13 0)
(5.74747 1.11233e-13 0)
(5.74747 5.67865e-14 0)
(5.74747 5.35392e-14 0)
(5.74747 5.91902e-14 0)
(5.74747 2.67079e-14 0)
(5.74747 -2.45409e-14 0)
(5.74747 -4.63947e-14 0)
(5.74747 -3.01985e-14 0)
(5.74747 -1.48826e-14 0)
(5.74747 3.4706e-14 0)
(5.74747 4.94052e-14 0)
(5.74747 5.16689e-14 0)
(5.74747 3.75565e-14 0)
(5.74747 2.20342e-14 0)
(5.74747 3.95402e-15 0)
(5.74747 1.72696e-14 0)
(5.74747 -3.89401e-15 0)
(5.74747 -2.82882e-14 0)
(5.74747 -4.86084e-14 0)
(5.74747 -5.19156e-14 0)
(5.74747 -6.00837e-14 0)
(5.74747 -1.50493e-14 0)
(5.74747 -5.26091e-15 0)
(5.74747 3.99969e-14 0)
(5.74747 4.76882e-14 0)
(5.74747 3.89934e-14 0)
(5.74747 5.50995e-14 0)
(5.74747 8.67116e-14 0)
(5.74747 8.73584e-14 0)
(5.74747 7.41361e-14 0)
(5.74747 1.00641e-13 0)
(5.74747 1.11853e-13 0)
(5.74747 1.02398e-13 0)
(5.74747 1.1814e-13 0)
(5.74747 2.26379e-13 0)
(5.74747 3.25426e-13 0)
(5.74747 3.34484e-13 0)
(5.74747 3.21005e-13 0)
(5.74747 2.71677e-13 0)
(5.74747 1.88533e-13 0)
(5.74747 1.06992e-13 0)
(5.74747 5.59163e-14 0)
(5.74747 3.45193e-14 0)
(5.74747 -1.75564e-14 0)
(5.74747 -1.11753e-14 0)
(5.74747 -4.48744e-15 0)
(5.74747 1.48226e-14 0)
(5.74747 1.85299e-14 0)
(5.74747 3.95735e-14 0)
(5.74747 4.20039e-14 0)
(5.74747 3.20022e-14 0)
(5.74747 -6.5578e-15 0)
(5.74747 -3.81066e-14 0)
(5.74747 -8.85715e-15 0)
(5.74747 -1.23055e-14 0)
(5.74747 -3.78465e-14 0)
(5.74747 -5.23824e-14 0)
(5.74747 -3.42359e-14 0)
(5.74747 8.17808e-15 0)
(5.74747 1.54727e-14 0)
(5.74747 7.40128e-16 0)
(5.74747 -2.54877e-14 0)
(5.74747 -1.84832e-14 0)
(5.74747 1.61028e-15 0)
(5.74747 4.15572e-14 0)
(5.74747 7.5203e-14 0)
(5.74747 1.34903e-13 0)
(5.74747 2.23172e-13 0)
(5.74747 2.37611e-13 0)
(5.74747 2.14567e-13 0)
(5.74747 2.41138e-13 0)
(5.74747 1.9554e-13 0)
(5.74747 1.81948e-13 0)
(5.74747 2.06322e-13 0)
(5.74747 2.06899e-13 0)
(5.74747 2.40408e-13 0)
(5.74747 2.68706e-13 0)
(5.74747 3.08047e-13 0)
(5.74747 2.57014e-13 0)
(5.74747 2.02368e-13 0)
(5.74747 2.11203e-13 0)
(5.74747 2.36468e-13 0)
(5.74747 1.00097e-13 0)
(5.74747 -6.28309e-14 0)
(5.74747 -2.94851e-14 0)
(5.74747 1.79831e-14 0)
(5.74747 1.28389e-14 0)
(5.74747 -4.75482e-14 0)
(5.74747 -5.84401e-14 0)
(5.74747 -8.29177e-14 0)
(5.74747 -9.39462e-14 0)
(5.74747 -7.34527e-14 0)
(5.74747 -1.90266e-14 0)
(5.74747 9.02591e-14 0)
(5.74747 3.13387e-15 0)
(5.74747 -1.54093e-14 0)
(5.74747 -1.74897e-14 0)
(5.74747 4.70081e-15 0)
(5.74747 3.36758e-14 0)
(5.74747 3.99936e-14 0)
(5.74747 5.14989e-14 0)
(5.74747 5.24891e-14 0)
(5.74747 4.72082e-14 0)
(5.74747 2.5151e-14 0)
(5.74747 -3.75065e-15 0)
(5.74747 -3.89734e-15 0)
(5.74747 1.77331e-14 0)
(5.74747 7.98971e-14 0)
(5.74747 1.56214e-13 0)
(5.74747 1.82868e-13 0)
(5.74747 1.64605e-13 0)
(5.74747 1.08069e-13 0)
(5.74747 7.07456e-15 0)
(5.74747 -1.92367e-14 0)
(5.74747 -6.74917e-14 0)
(5.74747 -6.57314e-14 0)
(5.74747 -3.36725e-14 0)
(5.74747 -1.89433e-14 0)
(5.74747 3.37025e-14 0)
(5.74747 6.7415e-14 0)
(5.74747 8.13641e-14 0)
(5.74747 1.30706e-13 0)
(5.74747 1.15953e-13 0)
(5.74747 1.27119e-13 0)
(5.74747 2.85849e-14 0)
(5.74747 -2.71047e-14 0)
(5.74747 -2.97851e-14 0)
(5.74747 -3.50394e-14 0)
(5.74747 -3.78232e-14 0)
(5.74747 -3.37392e-14 0)
(5.74747 -2.54111e-14 0)
(5.74747 -1.19454e-14 0)
(5.74747 2.09136e-14 0)
(5.74747 6.08489e-14 0)
(5.74747 5.18423e-15 0)
(5.74747 8.88487e-15 0)
(5.74747 1.66295e-14 0)
(5.74747 8.86153e-15 0)
(5.74747 4.91752e-15 0)
(5.74747 2.37008e-14 0)
(5.74747 3.80799e-14 0)
(5.74747 4.25107e-14 0)
(5.74747 5.42427e-14 0)
(5.74747 5.45561e-14 0)
(5.74747 9.74168e-15 0)
(5.74747 -9.2926e-14 0)
(5.74747 -1.17884e-13 0)
(5.74747 -1.22281e-13 0)
(5.74747 -7.37694e-14 0)
(5.74747 -4.72248e-14 0)
(5.74747 -8.33111e-14 0)
(5.74747 -1.26542e-13 0)
(5.74747 -1.26802e-13 0)
(5.74747 -1.38807e-13 0)
(5.74747 -1.77761e-13 0)
(5.74747 -1.67689e-13 0)
(5.74747 -1.30086e-13 0)
(5.74747 -1.3475e-13 0)
(5.74747 -1.33993e-13 0)
(5.74747 -1.35777e-13 0)
(5.74747 -1.40394e-13 0)
(5.74747 -8.06306e-14 0)
(5.74747 3.15888e-14 0)
(5.74747 1.27752e-13 0)
(5.74747 9.58732e-14 0)
(5.74747 3.02719e-15 0)
(5.74747 4.65214e-14 0)
(5.74747 5.84634e-14 0)
(5.74747 6.40511e-14 0)
(5.74747 6.30376e-14 0)
(5.74747 3.0932e-14 0)
(5.74747 8.42812e-15 0)
(5.74747 -2.55544e-14 0)
(5.74747 -7.29249e-14 0)
(5.74747 -1.1302e-15 0)
(5.74747 1.93367e-16 0)
(5.74747 7.73134e-15 0)
(5.74747 5.84101e-15 0)
(5.74747 9.08824e-15 0)
(5.74747 -8.22475e-15 0)
(5.74747 -2.59578e-14 0)
(5.74747 -4.19506e-14 0)
(5.74747 -1.03751e-14 0)
(5.74747 2.92984e-14 0)
(5.74747 3.06486e-14 0)
(5.74747 -4.93419e-16 0)
(5.74747 -5.31725e-14 0)
(5.74747 -8.3011e-14 0)
(5.74747 -9.69334e-14 0)
(5.74747 -1.31503e-13 0)
(5.74747 -1.04531e-13 0)
(5.74747 -3.72364e-14 0)
(5.74747 1.7133e-14 0)
(5.74747 -4.59779e-14 0)
(5.74747 -1.10142e-13 0)
(5.74747 -1.07562e-13 0)
(5.74747 -8.02072e-14 0)
(5.74747 -4.13238e-14 0)
(5.74747 -4.46477e-14 0)
(5.74747 -7.61231e-14 0)
(5.74747 -9.78869e-14 0)
(5.74747 -1.24602e-13 0)
(5.74747 -1.43358e-15 0)
(5.74747 9.82603e-14 0)
(5.74747 1.11739e-13 0)
(5.74747 1.58781e-13 0)
(5.74747 1.66785e-13 0)
(5.74747 1.5265e-13 0)
(5.74747 7.45629e-14 0)
(5.74747 4.61613e-14 0)
(5.74747 5.14622e-14 0)
(5.74747 9.67434e-14 0)
(5.74747 -4.27741e-15 0)
(5.74747 -4.10969e-14 0)
(5.74747 -6.11772e-15 0)
(5.74747 1.7203e-15 0)
(5.74747 3.02719e-15 0)
(5.74747 9.03489e-16 0)
(5.74747 6.78117e-15 0)
(5.74747 5.2009e-15 0)
(5.74747 -8.64516e-14 0)
(5.74747 -1.45718e-13 0)
(5.74747 -1.49482e-13 0)
(5.74747 -1.1782e-13 0)
(5.74747 -9.77369e-14 0)
(5.74747 -7.87436e-14 0)
(5.74747 -5.10488e-14 0)
(5.74747 -4.86651e-14 0)
(5.74747 -8.02105e-14 0)
(5.74747 -1.31193e-13 0)
(5.74747 -1.3472e-13 0)
(5.74747 -1.18817e-13 0)
(5.74747 -1.5274e-13 0)
(5.74747 -1.22458e-13 0)
(5.74747 -1.13216e-13 0)
(5.74747 -1.5381e-13 0)
(5.74747 -1.92623e-13 0)
(5.74747 -1.96404e-13 0)
(5.74747 -1.98208e-13 0)
(5.74747 -2.44819e-13 0)
(5.74747 -3.26366e-13 0)
(5.74747 -3.30227e-13 0)
(5.74747 -3.13527e-13 0)
(5.74747 -2.57261e-13 0)
(5.74747 -4.19572e-14 0)
(5.74747 3.4806e-14 0)
(5.74747 2.90083e-14 0)
(5.74747 -1.63862e-14 0)
(5.74747 -2.43275e-14 0)
(5.74747 -1.50126e-14 0)
(5.74747 -3.93068e-14 0)
(5.74747 -9.09857e-14 0)
(5.74747 -1.7412e-13 0)
(5.74747 -2.00465e-13 0)
(5.74747 1.22354e-14 0)
(5.74747 2.33207e-14 0)
(5.74747 7.82802e-15 0)
(5.74747 1.62561e-14 0)
(5.74747 2.81449e-14 0)
(5.74747 3.58762e-14 0)
(5.74747 4.61446e-14 0)
(5.74747 -3.52894e-14 0)
(5.74747 -6.07172e-14 0)
(5.74747 -9.70101e-14 0)
(5.74747 -1.04365e-13 0)
(5.74747 -8.14007e-14 0)
(5.74747 -7.07656e-14 0)
(5.74747 -5.79933e-14 0)
(5.74747 -5.25891e-14 0)
(5.74747 -5.23424e-14 0)
(5.74747 -6.48812e-14 0)
(5.74747 -9.25893e-14 0)
(5.74747 -1.24198e-13 0)
(5.74747 -8.3151e-14 0)
(5.74747 -5.08955e-14 0)
(5.74747 -4.57246e-14 0)
(5.74747 -1.04908e-13 0)
(5.74747 -1.27279e-13 0)
(5.74747 -1.24101e-13 0)
(5.74747 -1.37774e-13 0)
(5.74747 -1.29652e-13 0)
(5.74747 -1.33496e-13 0)
(5.74747 -1.3242e-13 0)
(5.74747 -1.28439e-13 0)
(5.74747 -7.62265e-14 0)
(5.74747 -1.00261e-13 0)
(5.74747 -1.77061e-13 0)
(5.74747 -1.78594e-13 0)
(5.74747 -1.74243e-13 0)
(5.74747 -1.65402e-13 0)
(5.74747 -1.85342e-13 0)
(5.74747 -2.41462e-13 0)
(5.74747 -2.46359e-13 0)
(5.74747 -2.24713e-13 0)
(5.74747 1.23055e-14 0)
(5.74747 2.12437e-14 0)
(5.74747 4.07737e-14 0)
(5.74747 4.88718e-14 0)
(5.74747 2.12437e-14 0)
(5.74747 3.38658e-14 0)
(5.74747 1.18627e-13 0)
(5.74747 1.85045e-13 0)
(5.74747 1.1497e-13 0)
(5.74747 8.64916e-14 0)
(5.74747 3.19622e-14 0)
(5.74747 1.7623e-14 0)
(5.74747 4.6608e-15 0)
(5.74747 1.60794e-14 0)
(5.74747 1.68662e-14 0)
(5.74747 -4.58079e-15 0)
(5.74747 2.01335e-14 0)
(5.74747 1.04651e-14 0)
(5.74747 -1.3599e-14 0)
(5.74747 -1.24288e-14 0)
(5.74747 -3.06253e-14 0)
(5.74747 -5.20923e-14 0)
(5.74747 -7.48863e-14 0)
(5.74747 -1.10109e-13 0)
(5.74747 -6.76584e-14 0)
(5.74747 -4.05037e-14 0)
(5.74747 -1.18187e-14 0)
(5.74747 -2.02802e-14 0)
(5.74747 4.78083e-15 0)
(5.74747 5.0092e-14 0)