/*--------------------------------*- C++ -*----------------------------------*\
| =========                 |                                                 |
| \\      /  F ield         | OpenFOAM: The Open Source CFD Toolbox           |
|  \\    /   O peration     | Version:  2206                                  |
|   \\  /    A nd           | Website:  www.openfoam.com                      |
|    \\/     M anipulation  |                                                 |
\*---------------------------------------------------------------------------*/
FoamFile
{
    version     2.0;
    format      ascii;
    arch        "LSB;label=32;scalar=64";
    class       volScalarField;
    location    "0.08";
    object      T;
}
// * * * * * * * * * * * * * * * * * * * * * * * * * * * * * * * * * * * * * //

dimensions      [0 0 0 1 0 0 0];

internalField   nonuniform List<scalar> 
75
(
1
1
1
1
1
1
1
1
1
1
1
1
1
1
1
1
1
1
1
1
1
1
1
1
1
1.07626
1.17945
1.28817
1.39048
1.46979
1.49774
1.50555
1.49705
1.47572
1.45036
1.00318
1.01898
1.05868
1.12608
1.20495
1.27064
1.31281
1.33401
1.36234
1.39921
1.00002
1.00002
1.00099
1.00779
1.03474
1.10028
1.19155
1.29494
1.36378
1.41368
1
1
1
0.999977
1.00051
1.00621
1.03183
1.10728
1.21695
1.35422
1
1
0.999999
0.999994
0.999991
0.999995
1.00056
1.00638
1.03722
1.22145
)
;

boundaryField
{
    inlet
    {
        type            fixedValue;
        value           uniform 1;
    }
    outlet
    {
        type            zeroGradient;
    }
    bottom
    {
        type            symmetryPlane;
    }
    top
    {
        type            symmetryPlane;
    }
    obstacle
    {
        type            zeroGradient;
    }
    defaultFaces
    {
        type            empty;
    }
}


// ************************************************************************* //
