/*--------------------------------*- C++ -*----------------------------------*\
| =========                 |                                                 |
| \\      /  F ield         | OpenFOAM: The Open Source CFD Toolbox           |
|  \\    /   O peration     | Version:  2206                                  |
|   \\  /    A nd           | Website:  www.openfoam.com                      |
|    \\/     M anipulation  |                                                 |
\*---------------------------------------------------------------------------*/
FoamFile
{
    version     2.0;
    format      ascii;
    arch        "LSB;label=32;scalar=64";
    class       volScalarField;
    location    "0.1";
    object      T;
}
// * * * * * * * * * * * * * * * * * * * * * * * * * * * * * * * * * * * * * //

dimensions      [0 0 0 1 0 0 0];

internalField   nonuniform List<scalar> 
4800
(
1
1
1
1
1
1
1
1
1
1
1
1
1
1
1
1
1
1
1
1
1
1
1
1
1
1
1
1
1
1
1
1
1
1
1
1
1
1
1
1
1
1
1
1
1
1
1
1
1
1
1
1
1
1
1
1
1
1
1
1
1
1
1
1
1
1
1
1
1
1
1
1
1
1
1
1
1
1
1
1
1
1
1
1
1
1
1
1
1
1
1
1
1
1
1
1
1
1
1
1
1
1
1
1
1
1
1
1
1
1
1
1
1
1
1
1
1
1
1
1
1
1
1
1
1
1
1
1
1
1
1
1
1
1
1
1
1
1
1
1
1
1
1
1
1
1
1
1
1
1
1
1
1
1
1
1
1
1
1
1
1
1
1
1
1
1
1
1
1
1
1
1
1
1
1
1
1
1
1
1
1
1
1
1
1
1
1
1
1
1
1
1
1
1
1
1
1
1
1
1
1
1
1
1
1
1
1
1
1
1
1
1
1
1
1
1
1
1
1
1
1
1
1
1
1
1
1
1
1
1
1
1
1
1
1
1
1
1
1
1
1
1
1
1
1
1
1
1
1
1
1
1
1
1
1
1
1
1
1
1
1
1
1
1
1
1
1
1
1
1
1
1
1
1
1
1
1
1
1
1
1
1
1
1
1
1
1
1
1
1
1
1
1
1
1
1
1
1
1
1
1
1
1
1
1
1
1
1
1
1
1
1
1
1
1
1
1
1
1
1
1
1
1
1
1
1
1
1
1
1
1
1
1
1
1
1
1
1
1
1
1
1
1
1
1
1
1
1
1
1
1
1
1
1
1
1
1
1
1
1
1
1
1
1
1
1
1
1
1
1
1
1
1
1
1
1
1
1
1
1
1
1
1
1
1
1
1
1
1
1
1
1
1
1
1
1
1
1
1
1
1
1
1
1
1
1
1
1
1
1
1
1
1
1
1
1
1
1
1
1
1
1
1
1
1
1
1
1
1
1
1
1
1
1
1
1
1
1
1
1
1
1
1
1
1
1
1
1
1
1
1
1
1
1
1
1
1
1
1
1
1
1
1
1
1
1
1
1
1
1
1
1
1
1
1
1
1
1
1
1
1
1
1
1
1
1
1
1
1
1
1
1
1
1
1
1
1
1
1
1
1
1
1
1
1
1
1
1
1
1
1
1
1
1
1
1
1
1
1
1
1
1
1
1
1
1
1
1
1
1
1
1
1
1
1
1
1
1
1
1
1
1
1
1
1
1
1
1
1
1
1
1
1
1
1
1
1
1
1
1
1
1
1
1
1
1
1
1
1
1
1
1
1
1
1
1
1
1
1
1
1
1
1
1
1
1
1
1
1
1
1
1
1
1
1
1
1
1
1
1
1
1
1
1
1
1
1
1
1
1
1
1
1
1
1
1
1
1
1
1
1
1
1
1
1
1
1
1
1
1
1
1
1
1
1
1
1
1
1
1
1
1
1
1
1
1
1
1
1
1
1
1
1
1
1
1
1
1
1
1
1
1
1
1
1
1
1
1
1
1
1
1
1
1
1
1
1
1
1
1
1
1
1
1
1
1
1
1
1
1
1
1
1
1
1
1
1
1
1
1
1
1
1
1
1
1
1
1
1
1
1
1
1
1
1
1
1
1
1
1
1
1
1
1
1
1
1
1
1
1
1
1
1
1
1
1
1
1
1
1
1
1
1
1
1
1
1
1
1
1
1
1
1
1
1
1
1
1
1
1
1
1
1
1
1
1
1
1
1
1
1
1
1
1
1
1
1
1
1
1
1
1
1
1
1
1
1
1
1
1
1
1
1
1
1
1
1
1
1
1
1
1
1
1
1
1
1
1
1
1
1
1
1
1
1
1
1
1
1
1
1
1
1
1
1
1
1
1
1
1
1
1
1
1
1
1
1
1
1
1
1
1
1
1
1
1
1
1
1
1
1
1
1
1
1
1
1
1
1
1
1
1
1
1
1
1
1
1
1
1
1
1
1
1
1
1
1
1
1
1
1
1
1
1
1
1
1
1
1
1
1
1
1
1
1
1
1
1
1
1
1
1
1
1
1
1
1
1
1
1
1
1
1
1
1
1
1
1
1
1
1
1
1
1
1
1
1
1
1
1
1
1
1
1
1
1
1
1
1
1
1
1
1
1
1
1
1
1
1
1
1
1
1
1
1
1
1
1
1
1
1
1
1
1
1
1
1
1
1
1
1
1
1
1
1
1
1
1
1
1
1
1
1
1
1
1
1
1
1
1
1
1
1
1
1
1
1
1
1
1
1
1
1
1
1
1
1
1
1
1
1
1
1
1
1
1
1
1
1
1
1
1
1
1
1
1
1
1
1
1
1
1
1
1
1
1
1
1
1
1
1
1
1
1
1
1
1
1
1
1
1
1
1
1
1
1
1
1
1
1
1
1
1
1
1
1
1
1
1
1
1
1
1
1
1
1
1
1
1
1
1
1
1
1
1
1
1
1
1
1
1
1
1
1
1
1
1
1
1
1
1
1
1
1
1
1
1
1
1
1
1
1
1
1
1
1
1
1
1
1
1
1
1
1
1
1
1
1
1
1
1
1
1
1
1
1
1
1
1
1
1
1
1
1
1
1
1
1
1
1
1
1
1
1
1
1
1
1
1
1
1
1
1
1
1
1
1
1
1
1
1
1
1
1
1
1
1
1
1
1
1
1
1
1
1
1
1
1
1
1
1
1
1
1
1
1
1
1
1
1
1
1
1
1
1
1
1
1
1
1
1
1
1
1
1
1
1
1
1
1
1
1
1
1
1
1
1
1
1
1
1
1
1
1
1
1
1
1
1
1
1
1
1
1
1
1
1
1
1
1
1
1
1
1
1
1
1
1
1
1
1
1
1
1
1
1
1
1
1
1
1
1
1
1
1
1
1
1
1
1
1
1
1
1
1
1
1
1
1
1
1
1
1
1
1
1
1
1
1
1
1
1
1
1
1
1
1
1
1
1
1
1
1
1
1
1
1
1
1
1
1
1
1
1
1
1
1
1
1
1
1
1
1
1
1
1
1
1
1
1
1
1
1
1
1
1
1
1
1
1
1
1
1
1
1
1
1
1
1
1
1
1
1
1
1
1
1
1
1
1
1
1
1
1
1
1
1
1
1
1
1
1
1
1
1
1
1
1
1
1
1
1
1
1
1
1
1
1
1
1
1
1
1
1
1
1
1
1
1
1
1
1
1
1
1
1
1
1
1
1
1
1
1
1
1
1
1
1
1
1
1
1
1
1
1
1
1
1
1
1
1
1
1
1
1
1
1
1
1
1
1
1
1
1
1
1
1
1
1
1
1
1
1
1
1
1
1
1
1
1
1
1
1
1
1
1
1
1
1
1
1
1
1
1
1
1
1
1
1
1
1
1
1
1
1
1
1
1
1
1
1
1
1
1
1
1
1
1
1
1
1
1
1
1
1
1
1
1
1
1
1
1
1
1
1
1
1
1
1
1
1
1
1
1
1
1
1
1
1
1
1
1
1
1
1
1
1
1
1
1
1
1
1
1
1
1
1
1
1
1
1
1
1
1
1
1
1
1
1
1
1
1
1
1
1
1
1
1
1
1
1
1
1
1
1
1
1
1
1
1
1
1
1
1
1
1
1
1
1
1
1.07009
1.16345
1.26005
1.34781
1.44441
1.55683
1.63979
1.6959
1.7642
1.86977
1.93269
1.94716
1.96618
2.00172
2.00739
1.99776
1.97391
1.93985
1.89806
1.86091
1.82105
1.79213
1.77069
1.74762
1.74414
1.74618
1.75268
1.76311
1.77635
1.7878
1.78979
1.78703
1.78476
1.78672
1.79369
1.80181
1.80698
1.80801
1.80829
1.80899
1.80863
1.80813
1.80733
1.80607
1.80589
1.80631
1.80747
1.8091
1.81115
1.81318
1.81527
1.81683
1.81726
1.81704
1.81527
1.81014
1.80475
1.80356
1.80442
1.80738
1.81219
1.81788
1.82175
1.82321
1.82339
1.82229
1.81954
1.81657
1.81298
1.81041
1.80894
1.8084
1.80876
1.81021
1.81286
1.81752
1.82286
1.82658
1.82818
1.82708
1
1
0.999652
1.00802
1.00873
1.02277
1.10236
1.19303
1.24273
1.3199
1.43119
1.52031
1.55127
1.60253
1.67505
1.70223
1.73345
1.75823
1.77179
1.81647
1.83888
1.84808
1.84766
1.83997
1.82568
1.81963
1.81699
1.8135
1.80933
1.80219
1.79274
1.79124
1.79183
1.79495
1.80098
1.80475
1.80534
1.80596
1.80765
1.81256
1.81536
1.81519
1.81419
1.81423
1.81476
1.81488
1.81435
1.81284
1.81191
1.81198
1.81406
1.81793
1.82054
1.82084
1.81961
1.8174
1.81594
1.81441
1.81414
1.81495
1.81601
1.81656
1.81724
1.81847
1.81904
1.8196
1.82011
1.81997
1.81999
1.81997
1.81995
1.81948
1.81857
1.81822
1.81872
1.81922
1.81991
1.82105
1.82191
1.82213
1
1
1
1
1
1
1
0.999996
1
0.9995
1.0024
1.02722
1.07194
1.13524
1.28012
1.43223
1.54807
1.69226
1.80871
1.8871
1.92985
1.92553
1.9239
1.91838
1.90575
1.89167
1.87568
1.86025
1.83523
1.82058
1.81467
1.81541
1.81623
1.81786
1.81962
1.82087
1.82239
1.82186
1.82137
1.82295
1.82478
1.82663
1.8298
1.83224
1.83265
1.83251
1.83182
1.82914
1.82449
1.8217
1.82127
1.82205
1.82468
1.82842
1.83103
1.83184
1.83155
1.83069
1.82992
1.82912
1.82788
1.8254
1.82307
1.82094
1.82004
1.82021
1.82236
1.82724
1.8319
1.83339
1.83345
1.83316
1.83176
1.82936
1.82794
1.82713
1.82588
1.82422
1.82199
1.82104
1
1
1
1
1
1
1
1
1
1
1
1
1
1
0.999538
1.00465
1.02491
1.12649
1.33848
1.51589
1.68055
1.76392
1.85745
1.90231
1.89461
1.8895
1.87489
1.87449
1.87615
1.87403
1.87539
1.8758
1.8711
1.86484
1.85933
1.85145
1.8446
1.83781
1.83465
1.83464
1.83577
1.83867
1.84446
1.85235
1.85544
1.85589
1.85589
1.85332
1.84714
1.84036
1.83744
1.83739
1.83835
1.83991
1.84243
1.84595
1.84878
1.84983
1.84939
1.84756
1.84489
1.8417
1.8375
1.83325
1.83113
1.83079
1.83113
1.83308
1.83874
1.84459
1.84665
1.84656
1.84475
1.84158
1.83825
1.83489
1.83167
1.82935
1.82761
1.82743
1
1
1
1
1
1
1
1
1
1
1
1
1
1
1
1
1
1
0.999454
1.0048
1.0719
1.2211
1.39152
1.58596
1.71396
1.83035
1.90707
1.91091
1.92669
1.92719
1.92233
1.91956
1.91348
1.90206
1.87972
1.87181
1.86938
1.86404
1.85726
1.85324
1.85275
1.85325
1.8562
1.86237
1.86792
1.86954
1.8698
1.8694
1.86713
1.86308
1.85889
1.85693
1.8564
1.85607
1.85589
1.8563
1.85764
1.85972
1.8621
1.86314
1.86242
1.85948
1.85559
1.85166
1.84829
1.84645
1.84586
1.84615
1.84762
1.85
1.8522
1.85309
1.85291
1.85106
1.84817
1.84602
1.84467
1.84364
1.84221
1.84013
1
1
1
1
1
1
1
1
1
1
1
1
1
1
1
1
1
1
1
1
1
0.999916
0.9996
1.03174
1.14174
1.27306
1.48794
1.64259
1.77311
1.83999
1.85237
1.87471
1.87401
1.87273
1.87835
1.8894
1.89552
1.89303
1.88653
1.87996
1.87352
1.86772
1.86294
1.86058
1.86104
1.86303
1.86694
1.87126
1.87393
1.87519
1.87621
1.87596
1.87461
1.87195
1.86862
1.86531
1.86379
1.86365
1.86437
1.86751
1.87098
1.87178
1.87154
1.8705
1.86887
1.86653
1.86404
1.86187
1.86082
1.85992
1.85856
1.8567
1.85561
1.85549
1.85639
1.85899
1.86057
1.86047
1.85958
1.85717
1
1
1
1
1
1
1
1
1
1
1
1
1
1
1
1
1
1
1
1
1
1
1
1
1
0.999518
1.00989
1.07278
1.18243
1.37983
1.55744
1.69016
1.77851
1.82212
1.87215
1.89465
1.89475
1.89547
1.89431
1.89083
1.88364
1.87504
1.86588
1.86038
1.85938
1.85988
1.86232
1.866
1.87113
1.8773
1.88156
1.88389
1.88459
1.88376
1.87835
1.8695
1.86489
1.86442
1.86467
1.866
1.8702
1.87551
1.87852
1.87975
1.87982
1.87938
1.878
1.87478
1.86967
1.86624
1.86393
1.86198
1.86092
1.86077
1.86155
1.86455
1.86891
1.87092
1.87126
1.86967
1
1
1
1
1
1
1
1
1
1
1
1
1
1
1
1
1
1
1
1
1
1
1
1
1
1
1
1
0.999674
1.0033
1.03788
1.11023
1.30844
1.49541
1.63672
1.72277
1.77379
1.82935
1.85265
1.86095
1.86804
1.87871
1.87859
1.87112
1.86377
1.86001
1.85882
1.85992
1.86214
1.86546
1.8713
1.87743
1.88067
1.88168
1.8816
1.87684
1.86905
1.86562
1.86527
1.86665
1.8689
1.87081
1.874
1.87786
1.88141
1.88253
1.88165
1.8798
1.87831
1.87612
1.87319
1.86953
1.867
1.8667
1.86708
1.86816
1.87058
1.87267
1.87375
1.87385
1
1
1
1
1
1
1
1
1
1
1
1
1
1
1
1
1
1
1
1
1
1
1
1
1
1
1
1
1
1
1
0.999798
1.00101
1.01996
1.07914
1.25154
1.41866
1.56749
1.68186
1.75591
1.82776
1.86096
1.8675
1.86662
1.86385
1.85983
1.85678
1.85316
1.85142
1.84875
1.8484
1.85272
1.86536
1.87418
1.87548
1.87609
1.87623
1.87442
1.87279
1.87092
1.86803
1.86703
1.86728
1.8686
1.86986
1.87172
1.87373
1.87576
1.87788
1.87914
1.87933
1.87817
1.8749
1.87175
1.87106
1.87165
1.8727
1.87257
1.87191
1.87145
1
1
1
1
1
1
1
1
1
1
1
1
1
1
1
1
1
1
1
1
1
1
1
1
1
1
1
1
1
1
1
1
1
1
0.999902
1.00018
1.00897
1.05436
1.23252
1.39977
1.54485
1.64489
1.73255
1.81597
1.84252
1.84609
1.84876
1.85509
1.84928
1.83721
1.83381
1.8367
1.84387
1.85154
1.85865
1.86307
1.86488
1.86838
1.87376
1.87498
1.8737
1.86807
1.86147
1.85923
1.85893
1.85931
1.86071
1.86351
1.86979
1.87579
1.87749
1.87742
1.87696
1.87671
1.87649
1.87539
1.87256
1.87011
1.86825
1.86792
1
1
1
1
1
1
1
1
1
1
1
1
1
1
1
1
1
1
1
1
1
1
1
1
1
1
1
1
1
1
1
1
1
1
1
1
1
0.999907
1.00031
1.0079
1.05397
1.20427
1.35796
1.53535
1.65374
1.74075
1.80632
1.83303
1.83911
1.83952
1.8392
1.83382
1.83121
1.83227
1.8331
1.83426
1.84073
1.8529
1.86429
1.86769
1.86784
1.86809
1.86545
1.85938
1.85461
1.85167
1.85162
1.85485
1.86047
1.8643
1.86715
1.86958
1.87093
1.87215
1.87386
1.87553
1.87505
1.87268
1.86853
1.86573
1
1
1
1
1
1
1
1
1
1
1
1
1
1
1
1
1
1
1
1
1
1
1
1
1
1
1
1
1
1
1
1
1
1
1
1
1
1
1
1
0.999937
1.00022
1.00559
1.06093
1.23053
1.37818
1.5163
1.63028
1.75994
1.8265
1.8301
1.82913
1.8366
1.83331
1.82238
1.81673
1.81769
1.82489
1.83731
1.84969
1.85449
1.85614
1.85697
1.85778
1.85817
1.85613
1.8523
1.85131
1.85213
1.85458
1.85599
1.85623
1.85733
1.86021
1.86548
1.86938
1.86969
1.86921
1.86933
1.86857
1
1
1
1
1
1
1
1
1
1
1
1
1
1
1
1
1
1
1
1
1
1
1
1
1
1
1
1
1
1
1
1
1
1
1
1
1
1
1
1
1
1
0.999999
0.999879
1.00077
1.00842
1.07062
1.21752
1.40225
1.58745
1.69384
1.77504
1.80683
1.82157
1.82493
1.82257
1.81471
1.81521
1.81843
1.82575
1.82765
1.82937
1.83715
1.84716
1.85213
1.85216
1.85307
1.85533
1.85634
1.85531
1.84913
1.84454
1.84486
1.8471
1.85202
1.85702
1.86089
1.86315
1.86449
1.86594
1
1
1
1
1
1
1
1
1
1
1
1
1
1
1
1
1
1
1
1
1
1
1
1
1
1
1
1
1
1
1
1
1
1
1
1
1
1
1
1
1
1
1
1
0.999999
1
0.999912
1.00089
1.01692
1.14593
1.31833
1.45537
1.57359
1.71527
1.81426
1.82224
1.82139
1.83068
1.83061
1.82188
1.81342
1.80914
1.81235
1.82179
1.8334
1.84033
1.84408
1.84821
1.85203
1.85377
1.85119
1.84308
1.83901
1.83892
1.84124
1.84646
1.84843
1.84987
1.85271
1.8595
1
1
1
1
1
1
1
1
1
1
1
1
1
1
1
1
1
1
1
1
1
1
1
1
1
1
1
1
1
1
1
1
1
1
1
1
1
1
1
1
1
1
1
1
1
1
0.999999
0.999999
0.999965
1.00031
1.00465
1.03672
1.15764
1.33268
1.56104
1.69331
1.77826
1.80887
1.81939
1.8231
1.82212
1.81225
1.80957
1.81216
1.81778
1.82263
1.82208
1.82619
1.838
1.84474
1.84387
1.84132
1.84306
1.84439
1.84467
1.84294
1.84013
1.84027
1.8425
1.84798
1
1
1
1
1
1
1
1
1
1
1
1
1
1
1
1
1
1
1
1
1
1
1
1
1
1
1
1
1
1
1
1
1
1
1
1
1
1
1
1
1
1
1
1
1
1
1
1
0.999999
0.999999
1
0.999962
1.00053
1.00968
1.12481
1.34922
1.50048
1.59327
1.72071
1.81231
1.8275
1.82295
1.83087
1.83365
1.82735
1.81782
1.81237
1.81254
1.81984
1.82559
1.82796
1.83095
1.8343
1.8389
1.8431
1.84519
1.8439
1.83897
1.83678
1.83847
1
1
1
1
1
1
1
1
1
1
1
1
1
1
1
1
1
1
1
1
1
1
1
1
1
1
1
1
1
1
1
1
1
1
1
1
1
1
1
1
1
1
1
1
1
1
1
1
1
1
1
0.999999
0.999999
0.999976
1.00054
1.00972
1.0608
1.19158
1.37112
1.59753
1.72247
1.78364
1.81841
1.82886
1.82766
1.82624
1.82398
1.81998
1.81934
1.81761
1.81396
1.81318
1.81466
1.82774
1.84033
1.84285
1.84207
1.84113
1.84037
1.83816
1
1
1
1
1
1
1
1
1
1
1
1
1
1
1
1
1
1
1
1
1
1
1
1
1
1
1
1
1
1
1
1
1
1
1
1
1
1
1
1
1
1
1
1
1
1
1
1
1
1
1
1
1
0.999999
0.999998
0.999997
1.00003
1.00168
1.01838
1.17197
1.44692
1.60903
1.67685
1.76646
1.81892
1.83222
1.83274
1.83786
1.84115
1.83423
1.81833
1.80805
1.80932
1.81771
1.82725
1.83204
1.83374
1.8346
1.83448
1.83421
1
1
1
1
1
1
1
1
1
1
1
1
1
1
1
1
1
1
1
1
1
1
1
1
1
1
1
1
1
1
1
1
1
1
1
1
1
1
1
1
1
1
1
1
1
1
1
1
1
1
1
1
1
1
1
1
1
0.999999
0.999981
1.00245
1.03703
1.19377
1.35959
1.53709
1.70584
1.75671
1.79105
1.82854
1.83348
1.83062
1.8234
1.82427
1.82658
1.82619
1.82489
1.8219
1.81866
1.81856
1.8225
1.82922
1
1
1
1
1
1
1
1
1
1
1
1
1
1
1
1
1
1
1
1
1
1
1
1
1
1
1
1
1
1
1
1
1
1
1
1
1
1
1
1
1
1
1
1
1
1
1
1
1
1
1
1
1
1
1
1
1
1
0.999999
0.999998
1.00001
1.0026
1.01849
1.103
1.36078
1.6273
1.7103
1.75637
1.80249
1.81643
1.82073
1.83239
1.84414
1.84769
1.84288
1.82897
1.8145
1.81239
1.81411
1.81945
1
1
1
1
1
1
1
1
1
1
1
1
1
1
1
1
1
1
1
1
1
1
1
1
1
1
1
1
1
1
1
1
1
1
1
1
1
1
1
1
1
1
1
1
1
1
1
1
1
1
1
1
1
1
1
1
1
1
1
1
1
1
0.999987
1.00084
1.01952
1.19232
1.44642
1.58858
1.73252
1.7625
1.77288
1.80211
1.83363
1.84171
1.8376
1.82924
1.82406
1.82283
1.82198
1.82166
1
1
1
1
1
1
1
1
1
1
1
1
1
1
1
1
1
1
1
1
1
1
1
1
1
1
1
1
1
1
1
1
1
1
1
1
1
1
1
1
1
1
1
1
1
1
1
1
1
1
1
1
1
1
1
1
1
1
1
1
1
1
0.999999
0.999997
1.00001
1.00422
1.05466
1.15912
1.40085
1.66722
1.74966
1.78562
1.81214
1.81902
1.81629
1.81712
1.82304
1.8307
1.83526
1.83442
1
1
1
1
1
1
1
1
1
1
1
1
1
1
1
1
1
1
1
1
1
1
1
1
1
1
1
1
1
1
1
1
1
1
1
1
1
1
1
1
1
1
1
1
1
1
1
1
1
1
1
1
1
1
1
1
1
1
1
1
1
1
1
1
1
0.999995
1.00012
1.00279
1.03184
1.25865
1.56683
1.72102
1.79246
1.79076
1.78809
1.79241
1.80022
1.8116
1.82624
1.8358
1
1
1
1
1
1
1
1
1
1
1
1
1
1
1
1
1
1
1
1
1
1
1
1
1
1
1
1
1
1
1
1
1
1
1
1
1
1
1
1
1
1
1
1
1
1
1
1
1
1
1
1
1
1
1
1
1
1
1
1
1
1
1
1
1
1
1
0.999996
1.0001
1.01383
1.15402
1.33148
1.55323
1.7351
1.81418
1.81951
1.8066
1.79974
1.80509
1.8219
1
1
1
1
1
1
1
1
1
1
1
1
1
1
1
1
1
1
1
1
1
1
1
1
1
1
1
1
1
1
1
1
1
1
1
1
1
1
1
1
1
1
1
1
1
1
1
1
1
1
1
1
1
1
1
1
1
1
1
1
1
1
1
1
1
1
1
1
0.999999
1.00003
1.00204
1.0227
1.12722
1.41875
1.69805
1.8197
1.81893
1.82293
1.81655
1.81482
1
1
1
1
1
1
1
1
1
1
1
1
1
1
1
1
1
1
1
1
1
1
1
1
1
1
1
1
1
1
1
1
1
1
1
1
1
1
1
1
1
1
1
1
1
1
1
1
1
1
1
1
1
1
1
1
1
1
1
1
1
1
1
1
1
1
1
1
1
1
0.999998
1.00004
1.00204
1.06734
1.30221
1.58138
1.76301
1.81089
1.82189
1.82832
1
1
1
1
1
1
1
1
1
1
1
1
1
1
1
1
1
1
1
1
1
1
1
1
1
1
1
1
1
1
1
1
1
1
1
1
1
1
1
1
1
1
1
1
1
1
1
1
1
1
1
1
1
1
1
1
1
1
1
1
1
1
1
1
1
1
1
1
1
1
1
1
0.999998
1.00069
1.01998
1.19981
1.47169
1.64803
1.77637
1.83578
1
1
1
1
1
1
1
1
1
1
1
1
1
1
1
1
1
1
1
1
1
1
1
1
1
1
1
1
1
1
1
1
1
1
1
1
1
1
1
1
1
1
1
1
1
1
1
1
1
1
1
1
1
1
1
1
1
1
1
1
1
1
1
1
1
1
1
1
1
1
1
1
1
0.999999
1.00009
1.0069
1.07802
1.33099
1.58624
1.7764
1
1
1
1
1
1
1
1
1
1
1
1
1
1
1
1
1
1
1
1
1
1
1
1
1
1
1
1
1
1
1
1
1
1
1
1
1
1
1
1
1
1
1
1
1
1
1
1
1
1
1
1
1
1
1
1
1
1
1
1
1
1
1
1
1
1
1
1
1
1
1
1
1
1
1
1
1.00099
1.02913
1.18947
1.64832
1
1
1
1
1
1
1
1
1
1
1
1
1
1
1
1
1
1
1
1
1
1
1
1
1
1
1
1
1
1
1
1
1
1
1
1
1
1
1
1
1
1
1
1
1
1
1
1
1
1
1
1
1
1
1
1
1
1
1
1
1
1
1
1
1
1
1
1
1
1
1
1
1
1
1
1
0.999999
1.00022
1.00698
1.35131
1
1
1
1
1
1
1
1
1
1
1
1
1
1
1
1
1
1
1
1
1
1
1
1
1
1
1
1
1
1
1
1
1
1
1
1
1
1
1
1
1
1
1
1
1
1
1
1
1
1
1
1
1
1
1
1
1
1
1
1
1
1
1
1
1
1
1
1
1
1
1
1
1
1
1
1
1
1
1.00008
1.06557
1
1
1
1
1
1
1
1
1
1
1
1
1
1
1
1
1
1
1
1
1
1
1
1
1
1
1
1
1
1
1
1
1
1
1
1
1
1
1
1
1
1
1
1
1
1
1
1
1
1
1
1
1
1
1
1
1
1
1
1
1
1
1
1
1
1
1
1
1
1
1
1
1
1
1
1
1
1
1
1.0037
1
1
1
1
1
1
1
1
1
1
1
1
1
1
1
1
1
1
1
1
1
1
1
1
1
1
1
1
1
1
1
1
1
1
1
1
1
1
1
1
1
1
1
1
1
1
1
1
1
1
1
1
1
1
1
1
1
1
1
1
1
1
1
1
1
1
1
1
1
1
1
1
1
1
1
1
1
1
1
1.00008
1
1
1
1
1
1
1
1
1
1
1
1
1
1
1
1
1
1
1
1
1
1
1
1
1
1
1
1
1
1
1
1
1
1
1
1
1
1
1
1
1
1
1
1
1
1
1
1
1
1
1
1
1
1
1
1
1
1
1
1
1
1
1
1
1
1
1
1
1
1
1
1
1
1
1
1
1
1
1
1
1
1
1
1
1
1
1
1
1
1
1
1
1
1
1
1
1
1
1
1
1
1
1
1
1
1
1
1
1
1
1
1
1
1
1
1
1
1
1
1
1
1
1
1
1
1
1
1
1
1
1
1
1
1
1
1
1
1
1
1
1
1
1
1
1
1
1
1
1
1
1
1
1
1
1
1
1
1
1
1
1
1
1
1
1
1
1
1
1
1
1
1
1
1
1
1
1
1
1
1
1
1
1
1
1
1
1
1
1
1
1
1
1
1
1
1
1
1
1
1
1
1
1
1
1
1
1
1
1
1
1
1
1
1
1
1
1
1
1
1
1
1
1
1
1
1
1
1
1
1
1
1
1
1
1
1
1
1
1
1
1
1
1
1
1
1
1
1
1
1
1
1
1
1
1
1
1
1
1
1
1
1
1
1
1
1
1
1
1
1
1
1
1
1
1
1
1
1
1
1
1
1
1
1
1
1
1
1
1
1
1
1
1
1
1
1
1
1
1
1
1
1
1
1
1
1
1
1
1
1
1
1
1
1
1
1
1
1
1
1
1
1
1
1
1
1
1
1
1
1
1
1
1
1
1
1
1
1
1
1
1
1
1
1
1
1
1
1
1
1
1
1
1
1
1
1
1
1
1
1
1
1
1
1
1
1
1
1
1
1
1
1
1
1
1
1
1
1
1
1
1
1
1
1
1
1
1
1
1
1
1
1
1
1
1
1
1
1
1
1
1
1
1
1
1
1
1
1
1
1
1
1
1
1
1
1
1
1
1
1
1
1
1
1
1
1
1
1
1
1
1
1
1
1
1
1
1
1
1
1
1
1
1
1
1
1
1
1
1
1
1
1
1
1
1
1
1
1
1
1
1
1
1
1
1
1
1
1
1
1
1
1
1
1
1
1
1
1
1
1
1
1
1
1
1
1
1
1
1
1
1
1
1
1
1
1
1
1
1
1
1
1
1
1
1
1
1
1
1
1
1
1
1
1
1
1
1
1
1
1
1
1
1
1
1
1
1
1
1
1
1
1
1
1
1
1
1
1
1
1
1
1
1
1
1
1
1
1
1
1
1
1
1
1
1
1
1
1
1
1
)
;

boundaryField
{
    inlet
    {
        type            fixedValue;
        value           uniform 1;
    }
    outlet
    {
        type            zeroGradient;
    }
    bottom
    {
        type            symmetryPlane;
    }
    top
    {
        type            symmetryPlane;
    }
    obstacle
    {
        type            zeroGradient;
    }
    defaultFaces
    {
        type            empty;
    }
}


// ************************************************************************* //
