/*--------------------------------*- C++ -*----------------------------------*\
| =========                 |                                                 |
| \\      /  F ield         | OpenFOAM: The Open Source CFD Toolbox           |
|  \\    /   O peration     | Version:  2206                                  |
|   \\  /    A nd           | Website:  www.openfoam.com                      |
|    \\/     M anipulation  |                                                 |
\*---------------------------------------------------------------------------*/
FoamFile
{
    version     2.0;
    format      ascii;
    arch        "LSB;label=32;scalar=64";
    class       volScalarField;
    location    "0.14";
    object      rho;
}
// * * * * * * * * * * * * * * * * * * * * * * * * * * * * * * * * * * * * * //

dimensions      [1 -3 0 0 0 0 0];

internalField   nonuniform List<scalar> 
4800
(
1.40001
1.40001
1.40001
1.40001
1.40001
1.40001
1.40001
1.40001
1.40001
1.40001
1.40001
1.40001
1.40001
1.40001
1.40001
1.40001
1.40001
1.40001
1.40001
1.40001
1.40001
1.40001
1.40001
1.40001
1.40001
1.40001
1.40001
1.40001
1.40001
1.40001
1.40001
1.40001
1.40001
1.40001
1.40001
1.40001
1.40001
1.40001
1.40001
1.40001
1.40001
1.40001
1.40001
1.40001
1.40001
1.40001
1.40001
1.40001
1.40001
1.40001
1.40001
1.40001
1.40001
1.40001
1.40001
1.40001
1.40001
1.40001
1.40001
1.40001
1.40001
1.40001
1.40001
1.40001
1.40001
1.40001
1.40001
1.40001
1.40001
1.40001
1.40001
1.40001
1.40001
1.40001
1.40001
1.40001
1.40001
1.40001
1.40001
1.40001
1.40001
1.40001
1.40001
1.40001
1.40001
1.40001
1.40001
1.40001
1.40001
1.40001
1.40001
1.40001
1.40001
1.40001
1.40001
1.40001
1.40001
1.40001
1.40001
1.40001
1.40001
1.40001
1.40001
1.40001
1.40001
1.40001
1.40001
1.40001
1.40001
1.40001
1.40001
1.40001
1.40001
1.40001
1.40001
1.40001
1.40001
1.40001
1.40001
1.40001
1.40001
1.40001
1.40001
1.40001
1.40001
1.40001
1.40001
1.40001
1.40001
1.40001
1.40001
1.40001
1.40001
1.40001
1.40001
1.40001
1.40001
1.40001
1.40001
1.40001
1.40001
1.40001
1.40001
1.40001
1.40001
1.40001
1.40001
1.40001
1.40001
1.40001
1.40001
1.40001
1.40001
1.40001
1.40001
1.40001
1.40001
1.40001
1.40001
1.40001
1.40001
1.40001
1.40001
1.40001
1.40001
1.40001
1.40001
1.40001
1.40001
1.40001
1.40001
1.40001
1.40001
1.40001
1.40001
1.40001
1.40001
1.40001
1.40001
1.40001
1.40001
1.40001
1.40001
1.40001
1.40001
1.40001
1.40001
1.40001
1.40001
1.40001
1.40001
1.40001
1.40001
1.40001
1.40001
1.40001
1.40001
1.40001
1.40001
1.40001
1.40001
1.40001
1.40001
1.40001
1.40001
1.40001
1.40001
1.40001
1.40001
1.40001
1.40001
1.40001
1.40001
1.40001
1.40001
1.40001
1.40001
1.40001
1.40001
1.40001
1.40001
1.40001
1.40001
1.40001
1.40001
1.40001
1.40001
1.40001
1.40001
1.40001
1.40001
1.40001
1.40001
1.40001
1.40001
1.40001
1.40001
1.40001
1.40001
1.40001
1.40001
1.40001
1.40001
1.40001
1.40001
1.40001
1.40001
1.40001
1.40001
1.40001
1.40001
1.40001
1.40001
1.40001
1.40001
1.40001
1.40001
1.40001
1.40001
1.40001
1.40001
1.40001
1.40001
1.40001
1.40001
1.40001
1.40001
1.40001
1.40001
1.40001
1.40001
1.40001
1.40001
1.40001
1.40001
1.40001
1.40001
1.40001
1.40001
1.40001
1.40001
1.40001
1.40001
1.40001
1.40001
1.40001
1.40001
1.40001
1.40001
1.40001
1.40001
1.40001
1.40001
1.40001
1.40001
1.40001
1.40001
1.40001
1.40001
1.40001
1.40001
1.40001
1.40001
1.40001
1.40001
1.40001
1.40001
1.40001
1.40001
1.40001
1.40001
1.40001
1.40001
1.40001
1.40001
1.40001
1.40001
1.40001
1.40001
1.40001
1.40001
1.40001
1.40001
1.40001
1.40001
1.40001
1.40001
1.40001
1.40001
1.40001
1.40001
1.40001
1.40001
1.40001
1.40001
1.40001
1.40001
1.40001
1.40001
1.40001
1.40001
1.40001
1.40001
1.40001
1.40001
1.40001
1.40001
1.40001
1.40001
1.40001
1.40001
1.40001
1.40001
1.40001
1.40001
1.40001
1.40001
1.40001
1.40001
1.40001
1.40001
1.40001
1.40001
1.40001
1.40001
1.40001
1.40001
1.40001
1.40001
1.40001
1.40001
1.40001
1.40001
1.40001
1.40001
1.40001
1.40001
1.40001
1.40001
1.40001
1.40001
1.40001
1.40001
1.40001
1.40001
1.40001
1.40001
1.40001
1.40001
1.40001
1.40001
1.40001
1.40001
1.40001
1.40001
1.40001
1.40001
1.40001
1.40001
1.40001
1.40001
1.40001
1.40001
1.40001
1.40001
1.40001
1.40001
1.40001
1.40001
1.40001
1.40001
1.40001
1.40001
1.40001
1.40001
1.40001
1.40001
1.40001
1.40001
1.40001
1.40001
1.40001
1.40001
1.40001
1.40001
1.40001
1.40001
1.40001
1.40001
1.40001
1.40001
1.40001
1.40001
1.40001
1.40001
1.40001
1.40001
1.40001
1.40001
1.40001
1.40001
1.40001
1.40001
1.40001
1.40001
1.40001
1.40001
1.40001
1.40001
1.40001
1.40001
1.40001
1.40001
1.40001
1.40001
1.40001
1.40001
1.40001
1.40001
1.40001
1.40001
1.40001
1.40001
1.40001
1.40001
1.40001
1.40001
1.40001
1.40001
1.40001
1.40001
1.40001
1.40001
1.40001
1.40001
1.40001
1.40001
1.40001
1.40001
1.40001
1.40001
1.40001
1.40001
1.40001
1.40001
1.40001
1.40001
1.40001
1.40001
1.40001
1.40001
1.40001
1.40001
1.40001
1.40001
1.40001
1.40001
1.40001
1.40001
1.40001
1.40001
1.40001
1.40001
1.40001
1.40001
1.40001
1.40001
1.40001
1.40001
1.40001
1.40001
1.40001
1.40001
1.40001
1.40001
1.40001
1.40001
1.40001
1.40001
1.40001
1.40001
1.40001
1.40001
1.40001
1.40001
1.40001
1.40001
1.40001
1.40001
1.40001
1.40001
1.40001
1.40001
1.40001
1.40001
1.40001
1.40001
1.40001
1.40001
1.40001
1.40001
1.40001
1.40001
1.40001
1.40001
1.40001
1.40001
1.40001
1.40001
1.40001
1.40001
1.40001
1.40001
1.40001
1.40001
1.40001
1.40001
1.40001
1.40001
1.40001
1.40001
1.40001
1.40001
1.40001
1.40001
1.40001
1.40001
1.40001
1.40001
1.40001
1.40001
1.40001
1.40001
1.40001
1.40001
1.40001
1.40001
1.40001
1.40001
1.40001
1.40001
1.40001
1.40001
1.40001
1.40001
1.40001
1.40001
1.40001
1.40001
1.40001
1.40001
1.40001
1.40001
1.40001
1.40001
1.40001
1.40001
1.40001
1.40001
1.40001
1.40001
1.40001
1.40001
1.40001
1.40001
1.40001
1.40001
1.40001
1.40001
1.40001
1.40001
1.40001
1.40001
1.40001
1.40001
1.40001
1.40001
1.40001
1.40001
1.40001
1.40001
1.40001
1.40001
1.40001
1.40001
1.40001
1.40001
1.40001
1.40001
1.40001
1.40001
1.40001
1.40001
1.40001
1.40001
1.40001
1.40001
1.40001
1.40001
1.40001
1.40001
1.40001
1.40001
1.40001
1.40001
1.40001
1.40001
1.40001
1.40001
1.40001
1.40001
1.40001
1.40001
1.40001
1.40001
1.40001
1.40001
1.40001
1.40001
1.40001
1.40001
1.40001
1.40001
1.40001
1.40001
1.40001
1.40001
1.40001
1.40001
1.40001
1.40001
1.40001
1.40001
1.40001
1.40001
1.40001
1.40001
1.40001
1.40001
1.40001
1.40001
1.40001
1.40001
1.40001
1.40001
1.40001
1.40001
1.40001
1.40001
1.40001
1.40001
1.40001
1.40001
1.40001
1.40001
1.40001
1.40001
1.40001
1.40001
1.40001
1.40001
1.40001
1.40001
1.40001
1.40001
1.40001
1.40001
1.40001
1.40001
1.40001
1.40001
1.40001
1.40001
1.40001
1.40001
1.40001
1.40001
1.40001
1.40001
1.40001
1.40001
1.40001
1.40001
1.40001
1.40001
1.40001
1.40001
1.40001
1.40001
1.40001
1.40001
1.40001
1.40001
1.40001
1.40001
1.40001
1.40001
1.40001
1.40001
1.40001
1.40001
1.40001
1.40001
1.40001
1.40001
1.40001
1.40001
1.40001
1.40001
1.40001
1.40001
1.40001
1.40001
1.40001
1.40001
1.40001
1.40001
1.40001
1.40001
1.40001
1.40001
1.40001
1.40001
1.40001
1.40001
1.40001
1.40001
1.40001
1.40001
1.40001
1.40001
1.40001
1.40001
1.40001
1.40001
1.40001
1.40001
1.40001
1.40001
1.40001
1.40001
1.40001
1.40001
1.40001
1.40001
1.40001
1.40001
1.40001
1.40001
1.40001
1.40001
1.40001
1.40001
1.40001
1.40001
1.40001
1.40001
1.40001
1.40001
1.40001
1.40001
1.40001
1.40001
1.40001
1.40001
1.40001
1.40001
1.40001
1.40001
1.40001
1.40001
1.40001
1.40001
1.40001
1.40001
1.40001
1.40001
1.40001
1.40001
1.40001
1.40001
1.40001
1.40001
1.40001
1.40001
1.40001
1.40001
1.40001
1.40001
1.40001
1.40001
1.40001
1.40001
1.40001
1.40001
1.40001
1.40001
1.40001
1.40001
1.40001
1.40001
1.40001
1.40001
1.40001
1.40001
1.40001
1.40001
1.40001
1.40001
1.40001
1.40001
1.40001
1.40001
1.40001
1.40001
1.40001
1.40001
1.40001
1.40001
1.40001
1.40001
1.40001
1.40001
1.40001
1.40001
1.40001
1.40001
1.40001
1.40001
1.40001
1.40001
1.40001
1.40001
1.40001
1.40001
1.40001
1.40001
1.40001
1.40001
1.40001
1.40001
1.40001
1.40001
1.40001
1.40001
1.40001
1.40001
1.40001
1.40001
1.40001
1.40001
1.40001
1.40001
1.40001
1.40001
1.40001
1.40001
1.40001
1.40001
1.40001
1.40001
1.40001
1.40001
1.40001
1.40001
1.40001
1.40001
1.40001
1.40001
1.40001
1.40001
1.40001
1.40001
1.40001
1.40001
1.40001
1.40001
1.40001
1.40001
1.40001
1.40001
1.40001
1.40001
1.40001
1.40001
1.40001
1.40001
1.40001
1.40001
1.40001
1.40001
1.40001
1.40001
1.40001
1.40001
1.40001
1.40001
1.40001
1.40001
1.40001
1.40001
1.40001
1.40001
1.40001
1.40001
1.40001
1.40001
1.40001
1.40001
1.40001
1.40001
1.40001
1.40001
1.40001
1.40001
1.40001
1.40001
1.40001
1.40001
1.40001
1.40001
1.40001
1.40001
1.40001
1.40001
1.40001
1.40001
1.40001
1.40001
1.40001
1.40001
1.40001
1.40001
1.40001
1.40001
1.40001
1.40001
1.40001
1.40001
1.40001
1.40001
1.40001
1.40001
1.40001
1.40001
1.40001
1.40001
1.40001
1.40001
1.40001
1.40001
1.40001
1.40001
1.40001
1.40001
1.40001
1.40001
1.40001
1.40001
1.40001
1.40001
1.40001
1.40001
1.40001
1.40001
1.40001
1.40001
1.40001
1.40001
1.40001
1.40001
1.40001
1.40001
1.40001
1.40001
1.40001
1.40001
1.40001
1.40001
1.40001
1.40001
1.40001
1.40001
1.40001
1.40001
1.40001
1.40001
1.40001
1.40001
1.40001
1.40001
1.40001
1.40001
1.40001
1.40001
1.40001
1.40001
1.40001
1.40001
1.40001
1.40001
1.40001
1.40001
1.40001
1.40001
1.40001
1.40001
1.40001
1.40001
1.40001
1.40001
1.40001
1.40001
1.40001
1.40001
1.40001
1.40001
1.40001
1.40001
1.40001
1.40001
1.40001
1.40001
1.40001
1.40001
1.40001
1.40001
1.40001
1.40001
1.40001
1.40001
1.40001
1.40001
1.40001
1.40001
1.40001
1.40001
1.40001
1.40001
1.40001
1.40001
1.40001
1.40001
1.40001
1.40001
1.40001
1.40001
1.40001
1.40001
1.40001
1.40001
1.40001
1.40001
1.40001
1.40001
1.40001
1.40001
1.40001
1.40001
1.40001
1.40001
1.40001
1.40001
1.40001
1.40001
1.40001
1.40001
1.40001
1.40001
1.40001
1.40001
1.40001
1.40001
1.40001
1.40001
1.40001
1.40001
1.40001
1.40001
1.40001
1.40001
1.40001
1.40001
1.40001
1.40001
1.40001
1.40001
1.40001
1.40001
1.40001
1.40001
1.40001
1.40001
1.40001
1.40001
1.40001
1.40001
1.40001
1.40001
1.40001
1.40001
1.40001
1.40001
1.40001
1.40001
1.40001
1.40001
1.40001
1.40001
1.40001
1.40001
1.40001
1.40001
1.40001
1.40001
1.40001
1.40001
1.40001
1.40001
1.40001
1.40001
1.40001
1.40001
1.40001
1.40001
1.40001
1.40001
1.40001
1.40001
1.40001
1.40001
1.40001
1.40001
1.40001
1.40001
1.40001
1.40001
1.40001
1.40001
1.40001
1.40001
1.40001
1.40001
1.40001
1.40001
1.40001
1.40001
1.40001
1.40001
1.40001
1.40001
1.40001
1.40001
1.40001
1.40001
1.40001
1.40001
1.40001
1.40001
1.40001
1.40001
1.40001
1.40001
1.40001
1.40001
1.40001
1.40001
1.40001
1.40001
1.40001
1.40001
1.40001
1.40001
1.40001
1.40001
1.40001
1.40001
1.40001
1.40001
1.40001
1.40001
1.40001
1.40001
1.40001
1.40001
1.40001
1.40001
1.40001
1.40001
1.40001
1.40001
1.40001
1.40001
1.40001
1.40001
1.40001
1.40001
1.40001
1.40001
1.40001
1.40001
1.40001
1.40001
1.40001
1.40001
1.40001
1.40001
1.40001
1.40001
1.40001
1.40001
1.40001
1.40001
1.40001
1.40001
1.40001
1.40001
1.40001
1.40001
1.40001
1.40001
1.40001
1.40001
1.40001
1.40001
1.40001
1.40001
1.40001
1.40001
1.40001
1.40001
1.40001
1.40001
1.40001
1.40001
1.40001
1.40001
1.40001
1.40001
1.40001
1.40001
1.40001
1.40001
1.40001
1.40001
1.40001
1.40001
1.40001
1.40001
1.40001
1.40001
1.40001
1.40001
1.40001
1.40001
1.40001
1.40001
1.40001
1.40001
1.40001
1.40001
1.40001
1.40001
1.40001
1.40001
1.40001
1.40001
1.40001
1.40001
1.40001
1.40001
1.40001
1.40001
1.40001
1.40001
1.40001
1.40001
1.40001
1.40001
1.40001
1.40001
1.40001
1.40001
1.40001
1.40001
1.40001
1.40001
1.40001
1.40001
1.40001
1.40001
1.40001
1.40001
1.40001
1.40001
1.40001
1.40001
1.40001
1.40001
1.40001
1.40001
1.40001
1.40001
1.40001
1.40001
1.40001
1.40001
1.40001
1.40001
1.40001
1.40001
1.40001
1.40001
1.40001
1.40001
1.40001
1.40001
1.40001
1.40001
1.40001
1.40001
1.40001
1.40001
1.40001
1.40001
1.40001
1.40001
1.40001
1.40001
1.40001
1.40001
1.40001
1.40001
1.40001
1.40001
1.40001
1.40001
1.40001
1.40001
1.40001
1.40001
1.40001
1.40001
1.40001
1.40001
1.40001
1.40001
1.40001
1.40001
1.40001
1.40001
1.40001
1.40001
1.40001
1.40001
1.40001
1.40001
1.40001
1.40001
1.40001
1.40001
1.40001
1.40001
1.40001
1.40001
1.40001
1.40001
1.40001
1.40001
1.40001
1.40001
1.40001
1.40001
1.40001
1.40001
1.40001
1.40001
1.40001
1.40001
1.40001
1.40001
1.40001
1.40001
1.40001
1.40001
1.40001
1.40001
1.40001
1.40001
1.40001
1.40001
1.40001
1.40001
1.40001
1.40001
1.40001
1.40001
1.40001
1.40001
1.40001
1.40001
1.40001
1.40001
1.40001
1.40001
1.40001
1.40001
1.40001
1.40001
1.40001
1.40001
1.40001
1.40001
1.40001
1.40001
1.40001
1.40001
1.40001
1.40001
1.40001
1.40001
1.40001
1.40001
1.40001
1.40001
1.40001
1.40001
1.40001
1.40001
1.40001
1.40001
1.40001
1.40001
1.40001
1.40001
1.40001
1.40001
1.40001
1.40001
1.40001
1.40001
1.40001
1.40001
1.40001
1.40001
1.40001
1.40001
1.40001
1.40001
1.40001
1.40001
1.40001
1.40001
1.40001
1.40001
1.40001
1.40001
1.40001
1.40001
1.40001
1.40001
1.40001
1.40001
1.40001
1.40001
1.40001
1.40001
1.40001
1.40001
1.40001
1.40001
1.40001
1.40001
1.40001
1.40001
1.40001
1.40001
1.40001
1.40001
1.40001
1.40001
1.40001
1.40001
1.40001
1.40001
1.40001
1.40001
1.40001
1.40001
1.40001
1.40001
1.40001
1.40001
1.40001
1.40001
1.40001
1.40001
1.40001
1.40001
1.40001
1.40001
1.40001
1.40001
1.40001
1.40001
1.40001
1.40001
1.40001
1.40001
1.40001
1.40001
1.40001
1.40001
1.40001
1.40001
1.40001
1.40001
1.40001
1.40001
1.40001
1.40001
1.40001
1.40001
1.40001
1.40001
1.40001
1.40001
1.40001
1.40001
1.40001
1.40001
1.40001
1.40001
1.40001
1.40001
1.40001
1.40001
1.40001
1.40001
1.40001
1.40001
1.40001
1.40001
1.40001
1.40001
1.40001
1.40001
1.40001
1.40001
1.40001
1.40001
1.40001
1.40001
1.40001
1.40001
1.40001
1.40001
1.40001
1.40001
1.40001
1.65488
2.01664
2.44089
2.84529
3.18887
3.55008
3.82698
4.11622
4.39622
4.43838
4.54815
4.59136
4.54104
4.40107
4.15958
3.88297
3.67819
3.61321
3.54598
3.43996
3.41182
3.41572
3.43606
3.47538
3.49911
3.51745
3.54153
3.56525
3.57742
3.57379
3.56536
3.56746
3.57771
3.58765
3.59234
3.58989
3.58194
3.57181
3.56252
3.56024
3.56167
3.56387
3.57001
3.58133
3.59229
3.59729
3.59808
3.5965
3.58929
3.57886
3.56894
3.5637
3.56205
3.56141
3.56248
3.565
3.56794
3.57217
3.57742
3.58158
3.5851
3.58958
3.59566
3.60003
3.60106
3.60004
3.59463
3.58532
3.57723
3.5744
3.57296
3.572
3.57218
3.57424
3.57517
3.57508
3.57485
3.57478
3.57541
3.57919
1.39969
1.40488
1.40852
1.45873
1.55691
1.68948
1.90485
2.12674
2.448
2.76116
3.03894
3.38414
3.54455
3.65273
3.7019
3.78637
3.79658
3.78111
3.75645
3.69921
3.6442
3.5987
3.56665
3.54808
3.51341
3.49445
3.49563
3.50802
3.52966
3.53644
3.53789
3.54691
3.56358
3.57346
3.57717
3.57521
3.57151
3.56925
3.56649
3.56301
3.56232
3.56119
3.5592
3.5609
3.5696
3.5766
3.5791
3.57898
3.57645
3.57309
3.57276
3.57417
3.57655
3.57778
3.57757
3.57629
3.57385
3.56994
3.5672
3.56672
3.5669
3.56867
3.57341
3.58084
3.58664
3.58774
3.58592
3.58121
3.57918
3.57954
3.58075
3.58232
3.58354
3.58402
3.58348
3.5815
3.57868
3.57695
3.57677
3.57717
1.40001
1.40001
1.4
1.4
1.40001
1.39967
1.40047
1.40723
1.43689
1.53306
1.68064
1.97848
2.41109
2.87575
3.4026
3.63413
3.8737
3.90909
3.89208
3.86726
3.81879
3.75759
3.63925
3.5478
3.48334
3.45394
3.45821
3.47247
3.49534
3.50267
3.50061
3.50519
3.51557
3.52747
3.54221
3.55074
3.55238
3.55556
3.55742
3.5575
3.55796
3.55522
3.5478
3.54253
3.54171
3.54174
3.54103
3.54101
3.54355
3.55014
3.5586
3.56581
3.57148
3.57537
3.57695
3.57739
3.57578
3.56913
3.55982
3.55418
3.55277
3.55285
3.55391
3.55709
3.5609
3.5635
3.56525
3.56764
3.57037
3.57335
3.57786
3.58197
3.58356
3.58384
3.58321
3.5811
3.57821
3.57625
3.57573
3.57506
1.40001
1.40001
1.40001
1.40001
1.40001
1.40001
1.40001
1.40001
1.40001
1.40001
1.39955
1.4023
1.43335
1.52756
1.80628
2.24577
2.78586
3.23492
3.42795
3.62069
3.61886
3.61991
3.64958
3.64955
3.62592
3.56349
3.53981
3.52479
3.51288
3.48395
3.43937
3.43109
3.43514
3.45046
3.47754
3.50117
3.51207
3.52334
3.53548
3.54041
3.54142
3.5382
3.53029
3.52535
3.52194
3.51951
3.51749
3.51449
3.51236
3.51436
3.52118
3.53382
3.54913
3.56056
3.56563
3.56661
3.56484
3.55753
3.54796
3.54313
3.54208
3.54185
3.54269
3.54498
3.54545
3.54473
3.54434
3.54584
3.54857
3.55287
3.55972
3.56758
3.57321
3.57547
3.57568
3.57416
3.57114
3.56894
3.5687
3.5682
1.40001
1.40001
1.40001
1.40001
1.40001
1.40001
1.40001
1.40001
1.40001
1.40001
1.40001
1.40001
1.40001
1.3998
1.40057
1.42541
1.51226
1.81097
2.23359
2.72071
3.11009
3.35495
3.62202
3.66385
3.66173
3.65738
3.63555
3.60057
3.53673
3.48023
3.42862
3.41892
3.4221
3.43402
3.45212
3.46351
3.46805
3.47646
3.48593
3.4941
3.50358
3.51151
3.5141
3.51326
3.51233
3.51133
3.50967
3.50436
3.49704
3.49437
3.49558
3.50038
3.50791
3.51706
3.52463
3.52943
3.532
3.53267
3.53063
3.52998
3.53054
3.53236
3.5361
3.53706
3.53666
3.53521
3.53329
3.53301
3.53427
3.53693
3.54074
3.54479
3.54796
3.54966
3.54996
3.54878
3.54768
3.54834
3.55018
3.55381
1.40001
1.40001
1.40001
1.40001
1.40001
1.40001
1.40001
1.40001
1.40001
1.40001
1.40001
1.40001
1.40001
1.40001
1.40001
1.40001
1.39981
1.4015
1.42511
1.50225
1.79035
2.19962
2.71281
3.07211
3.29047
3.49281
3.50927
3.52252
3.54789
3.5428
3.51304
3.49192
3.49099
3.48516
3.47419
3.46083
3.43674
3.42986
3.43133
3.43873
3.45629
3.47695
3.49589
3.50961
3.5175
3.52014
3.5202
3.51713
3.50441
3.49031
3.48831
3.48918
3.48929
3.49118
3.49416
3.49572
3.49742
3.50081
3.50585
3.51173
3.51677
3.52207
3.52831
3.53094
3.53108
3.53068
3.52886
3.52609
3.52596
3.52685
3.52786
3.52851
3.52846
3.52788
3.52682
3.52562
3.52547
3.52654
3.52884
3.53485
1.40001
1.40001
1.40001
1.40001
1.40001
1.40001
1.40001
1.40001
1.40001
1.40001
1.40001
1.40001
1.40001
1.40001
1.40001
1.40001
1.4
1.4
1.40001
1.39986
1.40191
1.42543
1.51796
1.82956
2.22148
2.71872
3.06071
3.31044
3.52674
3.55333
3.55756
3.55852
3.55382
3.53796
3.50961
3.48094
3.44639
3.42589
3.4229
3.42539
3.4355
3.44901
3.46691
3.49152
3.51332
3.52117
3.52212
3.52031
3.51566
3.50889
3.49701
3.48906
3.48746
3.48702
3.48606
3.48433
3.48335
3.48409
3.48692
3.49246
3.49976
3.5077
3.51584
3.52149
3.52297
3.52256
3.51977
3.51754
3.51757
3.51705
3.5154
3.51464
3.51386
3.51256
3.5113
3.51126
3.5121
3.514
3.51651
3.5208
1.40001
1.40001
1.40001
1.40001
1.40001
1.40001
1.40001
1.40001
1.40001
1.40001
1.40001
1.40001
1.40001
1.40001
1.40001
1.40001
1.40001
1.4
1.40001
1.4
1.4
1.40001
1.39991
1.40377
1.42885
1.53101
1.85816
2.25009
2.76045
3.04771
3.27774
3.45454
3.47642
3.49935
3.52698
3.53045
3.51891
3.49973
3.48305
3.46222
3.44894
3.45042
3.4553
3.46429
3.4751
3.48666
3.5004
3.51028
3.51337
3.51312
3.51272
3.51355
3.51348
3.51159
3.5064
3.49746
3.48954
3.48641
3.48591
3.48748
3.49139
3.49577
3.50056
3.50339
3.50424
3.50408
3.50496
3.50677
3.50807
3.50908
3.51031
3.51081
3.51081
3.51042
3.51003
3.51006
3.5108
3.51247
3.51488
3.51832
1.40001
1.40001
1.40001
1.40001
1.40001
1.40001
1.40001
1.40001
1.40001
1.40001
1.40001
1.40001
1.40001
1.40001
1.40001
1.40001
1.40001
1.40001
1.40001
1.40001
1.4
1.4
1.4
1.4
1.40001
1.39997
1.40559
1.43576
1.5674
1.91851
2.34355
2.83159
3.10685
3.36278
3.4989
3.52372
3.54333
3.54476
3.53377
3.50709
3.49335
3.48196
3.47413
3.46924
3.46417
3.46376
3.46788
3.47296
3.48211
3.49385
3.50839
3.5227
3.52818
3.52834
3.52647
3.52317
3.51749
3.50976
3.50229
3.49601
3.49264
3.49228
3.49295
3.4925
3.49147
3.49092
3.4922
3.49581
3.49954
3.50357
3.50853
3.51197
3.51359
3.51441
3.51455
3.51449
3.51477
3.51577
3.51771
3.51859
1.40001
1.40001
1.40001
1.40001
1.40001
1.40001
1.40001
1.40001
1.40001
1.40001
1.40001
1.40001
1.40001
1.40001
1.40001
1.40001
1.40001
1.40001
1.40001
1.40001
1.40001
1.40001
1.40001
1.40001
1.4
1.4
1.40001
1.39997
1.40023
1.41032
1.45161
1.64135
2.026
2.46781
2.88652
3.14025
3.36441
3.49312
3.51489
3.51776
3.54057
3.5561
3.55177
3.53823
3.51696
3.49041
3.46785
3.4631
3.46572
3.47537
3.48884
3.50211
3.51401
3.52228
3.52741
3.52843
3.52693
3.52495
3.52326
3.52086
3.51705
3.51231
3.50696
3.50118
3.4956
3.49354
3.49437
3.49668
3.4994
3.50203
3.5051
3.5087
3.5123
3.51534
3.51661
3.51673
3.51696
3.51786
3.51881
3.51739
1.40001
1.40001
1.40001
1.40001
1.40001
1.40001
1.40001
1.40001
1.40001
1.40001
1.40001
1.40001
1.40001
1.40001
1.40001
1.40001
1.40001
1.40001
1.40001
1.40001
1.40001
1.40001
1.40001
1.40001
1.40001
1.40001
1.40001
1.4
1.4
1.40001
1.39998
1.40121
1.41879
1.47948
1.72607
2.12897
2.64451
2.99283
3.24245
3.418
3.50508
3.55943
3.57257
3.57326
3.56371
3.54814
3.52684
3.50686
3.49429
3.49189
3.49587
3.50467
3.50636
3.50539
3.50366
3.50588
3.51205
3.51918
3.5246
3.52711
3.52809
3.52962
3.53049
3.52787
3.52068
3.51204
3.50601
3.5036
3.50337
3.50487
3.50698
3.50779
3.50898
3.51081
3.51249
3.51345
3.51413
3.51435
3.51436
3.51341
1.40001
1.40001
1.40001
1.40001
1.40001
1.40001
1.40001
1.40001
1.40001
1.40001
1.40001
1.40001
1.40001
1.40001
1.40001
1.40001
1.40001
1.40001
1.40001
1.40001
1.40001
1.40001
1.40001
1.40001
1.40001
1.40001
1.40001
1.40001
1.4
1.4
1.4
1.4
1.40001
1.40003
1.40388
1.43071
1.54148
1.89573
2.35012
2.82899
3.09361
3.3275
3.46639
3.53779
3.54906
3.55295
3.56436
3.56697
3.56126
3.5544
3.55069
3.54301
3.52637
3.50763
3.50002
3.49995
3.50324
3.50789
3.51202
3.51784
3.52661
3.53426
3.53719
3.53724
3.53334
3.53016
3.52837
3.52589
3.52293
3.51952
3.51552
3.51314
3.51251
3.51171
3.51034
3.50991
3.50985
3.51048
3.51115
3.51064
1.40001
1.40001
1.40001
1.40001
1.40001
1.40001
1.40001
1.40001
1.40001
1.40001
1.40001
1.40001
1.40001
1.40001
1.40001
1.40001
1.40001
1.40001
1.40001
1.40001
1.40001
1.40001
1.40001
1.40001
1.40001
1.40001
1.40001
1.40001
1.40001
1.40001
1.40001
1.40001
1.4
1.4
1.40001
1.39999
1.40046
1.41378
1.46556
1.66902
2.09785
2.63361
3.0229
3.24311
3.38603
3.45749
3.52648
3.56575
3.57818
3.58377
3.58781
3.58651
3.57513
3.55795
3.54283
3.52836
3.51951
3.51611
3.51582
3.51844
3.52204
3.52508
3.52668
3.53024
3.53513
3.53747
3.53869
3.53848
3.5381
3.53651
3.53313
3.52902
3.5257
3.52186
3.51718
3.51432
3.51304
3.51288
3.51294
3.51235
1.40001
1.40001
1.40001
1.40001
1.40001
1.40001
1.40001
1.40001
1.40001
1.40001
1.40001
1.40001
1.40001
1.40001
1.40001
1.40001
1.40001
1.40001
1.40001
1.40001
1.40001
1.40001
1.40001
1.40001
1.40001
1.40001
1.40001
1.40001
1.40001
1.40001
1.40001
1.40001
1.40001
1.4
1.4
1.4
1.4
1.4
1.40006
1.40313
1.43565
1.5453
1.9038
2.41174
2.94426
3.16287
3.33837
3.43458
3.48743
3.53458
3.57419
3.58009
3.57936
3.57707
3.57288
3.57
3.56838
3.56271
3.55178
3.54095
3.53576
3.53239
3.53034
3.52859
3.52817
3.53063
3.53526
3.54036
3.54081
3.53988
3.53861
3.53675
3.53446
3.53153
3.5287
3.52791
3.52789
3.52778
3.52645
3.52113
1.40001
1.40001
1.40001
1.40001
1.40001
1.40001
1.40001
1.40001
1.40001
1.40001
1.40001
1.40001
1.40001
1.40001
1.40001
1.40001
1.40001
1.40001
1.40001
1.40001
1.40001
1.40001
1.40001
1.40001
1.40001
1.40001
1.40001
1.40001
1.40001
1.40001
1.40001
1.40001
1.40001
1.40001
1.40001
1.40001
1.4
1.4
1.4
1.40001
1.40002
1.40071
1.41869
1.49405
1.74429
2.22486
2.83992
3.20256
3.32657
3.40616
3.47039
3.50099
3.51243
3.53
3.55431
3.57911
3.5894
3.5891
3.58309
3.5817
3.58078
3.5749
3.56139
3.54369
3.53476
3.53439
3.5365
3.53812
3.53887
3.53871
3.53894
3.53939
3.53824
3.5347
3.53329
3.5334
3.53559
3.54051
3.54203
3.53821
1.40001
1.40001
1.40001
1.40001
1.40001
1.40001
1.40001
1.40001
1.40001
1.40001
1.40001
1.40001
1.40001
1.40001
1.40001
1.40001
1.40001
1.40001
1.40001
1.40001
1.40001
1.40001
1.40001
1.40001
1.40001
1.40001
1.40001
1.40001
1.40001
1.40001
1.40001
1.40001
1.40001
1.40001
1.40001
1.40001
1.40001
1.40001
1.4
1.4
1.4
1.4
1.40001
1.4003
1.40731
1.46844
1.66
2.12611
2.70644
3.23706
3.38142
3.43382
3.46297
3.45568
3.47287
3.50453
3.54065
3.56223
3.57648
3.58624
3.59131
3.59127
3.5825
3.56759
3.55815
3.5556
3.55418
3.55207
3.5498
3.54713
3.5454
3.54374
3.5396
3.53386
3.53163
3.53191
3.53776
3.54661
3.55048
3.54846
1.40001
1.40001
1.40001
1.40001
1.40001
1.40001
1.40001
1.40001
1.40001
1.40001
1.40001
1.40001
1.40001
1.40001
1.40001
1.40001
1.40001
1.40001
1.40001
1.40001
1.40001
1.40001
1.40001
1.40001
1.40001
1.40001
1.40001
1.40001
1.40001
1.40001
1.40001
1.40001
1.40001
1.40001
1.40001
1.40001
1.40001
1.40001
1.40001
1.40001
1.4
1.40001
1.4
1.4
1.4
1.4002
1.40366
1.45681
1.63228
2.05808
2.60359
3.1871
3.4537
3.46401
3.47812
3.48094
3.49486
3.51202
3.52513
3.53621
3.55154
3.56737
3.56969
3.56738
3.56474
3.56652
3.56902
3.57034
3.56973
3.5674
3.56446
3.55996
3.55249
3.54279
3.53676
3.53672
3.54098
3.54864
3.55483
3.55345
1.40001
1.40001
1.40001
1.40001
1.40001
1.40001
1.40001
1.40001
1.40001
1.40001
1.40001
1.40001
1.40001
1.40001
1.40001
1.40001
1.40001
1.40001
1.40001
1.40001
1.40001
1.40001
1.40001
1.40001
1.40001
1.40001
1.40001
1.40001
1.40001
1.40001
1.40001
1.40001
1.40001
1.40001
1.40001
1.40001
1.40001
1.40001
1.40001
1.40001
1.40001
1.40001
1.40001
1.4
1.4
1.4
1.4
1.40019
1.40294
1.44211
1.60312
2.02736
2.61561
3.12146
3.44259
3.52358
3.54515
3.54866
3.53066
3.52535
3.52761
3.53415
3.54006
3.53694
3.53782
3.54702
3.5624
3.573
3.57443
3.57456
3.57578
3.57582
3.57426
3.56822
3.55804
3.55092
3.54949
3.5512
3.55385
3.55308
1.40001
1.40001
1.40001
1.40001
1.40001
1.40001
1.40001
1.40001
1.40001
1.40001
1.40001
1.40001
1.40001
1.40001
1.40001
1.40001
1.40001
1.40001
1.40001
1.40001
1.40001
1.40001
1.40001
1.40001
1.40001
1.40001
1.40001
1.40001
1.40001
1.40001
1.40001
1.40001
1.40001
1.40001
1.40001
1.40001
1.40001
1.40001
1.40001
1.40001
1.40001
1.40001
1.40001
1.40001
1.40001
1.4
1.4
1.4
1.4
1.40012
1.40254
1.43636
1.63265
2.04579
2.629
3.147
3.45118
3.55966
3.5698
3.59438
3.59339
3.57059
3.5483
3.53686
3.536
3.54166
3.54684
3.54999
3.55021
3.55196
3.56063
3.57315
3.57821
3.57792
3.57356
3.56954
3.566
3.56271
3.55875
3.55461
1.40001
1.40001
1.40001
1.40001
1.40001
1.40001
1.40001
1.40001
1.40001
1.40001
1.40001
1.40001
1.40001
1.40001
1.40001
1.40001
1.40001
1.40001
1.40001
1.40001
1.40001
1.40001
1.40001
1.40001
1.40001
1.40001
1.40001
1.40001
1.40001
1.40001
1.40001
1.40001
1.40001
1.40001
1.40001
1.40001
1.40001
1.40001
1.40001
1.40001
1.40001
1.40001
1.40001
1.40001
1.40001
1.40001
1.40001
1.4
1.4
1.4
1.4
1.40011
1.40387
1.44026
1.66877
2.13013
2.70907
3.17155
3.41617
3.55096
3.60134
3.60382
3.58873
3.57727
3.57924
3.57986
3.57083
3.55272
3.54265
3.53922
3.54173
3.5469
3.55389
3.56266
3.56825
3.56922
3.56941
3.5694
3.56834
3.56207
1.40001
1.40001
1.40001
1.40001
1.40001
1.40001
1.40001
1.40001
1.40001
1.40001
1.40001
1.40001
1.40001
1.40001
1.40001
1.40001
1.40001
1.40001
1.40001
1.40001
1.40001
1.40001
1.40001
1.40001
1.40001
1.40001
1.40001
1.40001
1.40001
1.40001
1.40001
1.40001
1.40001
1.40001
1.40001
1.40001
1.40001
1.40001
1.40001
1.40001
1.40001
1.40001
1.40001
1.40001
1.40001
1.40001
1.40001
1.40001
1.40001
1.4
1.4
1.4
1.4
1.40016
1.40607
1.45126
1.7263
2.28956
2.84964
3.18645
3.4411
3.55313
3.55005
3.56249
3.59237
3.61319
3.61267
3.60227
3.58769
3.56881
3.55209
3.54581
3.54526
3.54704
3.55269
3.56163
3.56979
3.57197
3.57221
3.56645
1.40001
1.40001
1.40001
1.40001
1.40001
1.40001
1.40001
1.40001
1.40001
1.40001
1.40001
1.40001
1.40001
1.40001
1.40001
1.40001
1.40001
1.40001
1.40001
1.40001
1.40001
1.40001
1.40001
1.40001
1.40001
1.40001
1.40001
1.40001
1.40001
1.40001
1.40001
1.40001
1.40001
1.40001
1.40001
1.40001
1.40001
1.40001
1.40001
1.40001
1.40001
1.40001
1.40001
1.40001
1.40001
1.40001
1.40001
1.40001
1.40001
1.40001
1.40001
1.4
1.4
1.4
1.4
1.40028
1.41148
1.4866
1.82092
2.41432
3.06554
3.33895
3.39152
3.43216
3.49279
3.54964
3.59151
3.60727
3.60918
3.60362
3.58879
3.57488
3.56107
3.55331
3.55263
3.56078
3.56465
3.56603
3.56767
3.56671
1.40001
1.40001
1.40001
1.40001
1.40001
1.40001
1.40001
1.40001
1.40001
1.40001
1.40001
1.40001
1.40001
1.40001
1.40001
1.40001
1.40001
1.40001
1.40001
1.40001
1.40001
1.40001
1.40001
1.40001
1.40001
1.40001
1.40001
1.40001
1.40001
1.40001
1.40001
1.40001
1.40001
1.40001
1.40001
1.40001
1.40001
1.40001
1.40001
1.40001
1.40001
1.40001
1.40001
1.40001
1.40001
1.40001
1.40001
1.40001
1.40001
1.40001
1.40001
1.40001
1.40001
1.4
1.4
1.4
1.40001
1.4008
1.42077
1.54416
1.95052
2.64608
3.28509
3.40031
3.43263
3.45564
3.50335
3.53557
3.55204
3.56833
3.58032
3.58053
3.57014
3.56598
3.56641
3.56784
3.56511
3.56446
3.56689
3.56891
1.40001
1.40001
1.40001
1.40001
1.40001
1.40001
1.40001
1.40001
1.40001
1.40001
1.40001
1.40001
1.40001
1.40001
1.40001
1.40001
1.40001
1.40001
1.40001
1.40001
1.40001
1.40001
1.40001
1.40001
1.40001
1.40001
1.40001
1.40001
1.40001
1.40001
1.40001
1.40001
1.40001
1.40001
1.40001
1.40001
1.40001
1.40001
1.40001
1.40001
1.40001
1.40001
1.40001
1.40001
1.40001
1.40001
1.40001
1.40001
1.40001
1.40001
1.40001
1.40001
1.40001
1.40001
1.40001
1.4
1.4
1.4
1.40006
1.40236
1.43911
1.65346
2.2735
2.94594
3.37713
3.51989
3.52561
3.5091
3.50394
3.51324
3.53604
3.55441
3.56479
3.57054
3.57302
3.57377
3.57026
3.56298
3.56121
3.56404
1.40001
1.40001
1.40001
1.40001
1.40001
1.40001
1.40001
1.40001
1.40001
1.40001
1.40001
1.40001
1.40001
1.40001
1.40001
1.40001
1.40001
1.40001
1.40001
1.40001
1.40001
1.40001
1.40001
1.40001
1.40001
1.40001
1.40001
1.40001
1.40001
1.40001
1.40001
1.40001
1.40001
1.40001
1.40001
1.40001
1.40001
1.40001
1.40001
1.40001
1.40001
1.40001
1.40001
1.40001
1.40001
1.40001
1.40001
1.40001
1.40001
1.40001
1.40001
1.40001
1.40001
1.40001
1.40001
1.40001
1.40001
1.4
1.4
1.4
1.40024
1.40877
1.5234
1.89543
2.53808
3.1939
3.50905
3.54842
3.56925
3.56204
3.54491
3.54314
3.55278
3.56453
3.57137
3.5735
3.57161
3.56089
3.54281
3.53992
1.40001
1.40001
1.40001
1.40001
1.40001
1.40001
1.40001
1.40001
1.40001
1.40001
1.40001
1.40001
1.40001
1.40001
1.40001
1.40001
1.40001
1.40001
1.40001
1.40001
1.40001
1.40001
1.40001
1.40001
1.40001
1.40001
1.40001
1.40001
1.40001
1.40001
1.40001
1.40001
1.40001
1.40001
1.40001
1.40001
1.40001
1.40001
1.40001
1.40001
1.40001
1.40001
1.40001
1.40001
1.40001
1.40001
1.40001
1.40001
1.40001
1.40001
1.40001
1.40001
1.40001
1.40001
1.40001
1.40001
1.40001
1.40001
1.4
1.4
1.4
1.40003
1.40197
1.43174
1.6466
2.19508
2.85732
3.31977
3.52317
3.5682
3.57282
3.57386
3.569
3.57141
3.57969
3.59042
3.59324
3.57912
3.5455
3.52632
1.40001
1.40001
1.40001
1.40001
1.40001
1.40001
1.40001
1.40001
1.40001