/*--------------------------------*- C++ -*----------------------------------*\
| =========                 |                                                 |
| \\      /  F ield         | OpenFOAM: The Open Source CFD Toolbox           |
|  \\    /   O peration     | Version:  2206                                  |
|   \\  /    A nd           | Website:  www.openfoam.com                      |
|    \\/     M anipulation  |                                                 |
\*---------------------------------------------------------------------------*/
FoamFile
{
    version     2.0;
    format      ascii;
    arch        "LSB;label=32;scalar=64";
    class       volVectorField;
    location    "0.14";
    object      U;
}
// * * * * * * * * * * * * * * * * * * * * * * * * * * * * * * * * * * * * * //

dimensions      [0 1 -1 0 0 0 0];

internalField   nonuniform List<vector> 
75
(
(3.76768 -5.34467e-15 0)
(3.76768 -5.328e-15 0)
(3.76768 1.66695e-17 0)
(3.76768 -3.15888e-16 0)
(3.76768 -7.58881e-16 0)
(3.76768 -4.83417e-16 0)
(3.76768 -7.19916e-15 0)
(3.76768 -6.87327e-15 0)
(3.76768 -6.254e-15 0)
(3.76768 -6.31125e-15 0)
(3.76768 -5.41177e-15 0)
(3.76768 -5.37843e-15 0)
(3.76768 -9.89588e-15 0)
(3.76768 -8.14266e-15 0)
(3.76768 -1.10741e-14 0)
(3.76768 -4.805e-15 0)
(3.76768 -7.32627e-16 0)
(3.76768 4.05612e-15 0)
(3.76768 8.15516e-15 0)
(3.76768 1.51042e-14 0)
(3.76768 4.83875e-15 0)
(3.76768 4.46785e-15 0)
(3.76768 8.27018e-15 0)
(3.76768 1.3121e-14 0)
(3.76768 2.76323e-14 0)
(3.71979 0.0117562 0)
(3.6531 0.0584806 0)
(3.57867 0.164667 0)
(3.51492 0.239343 0)
(3.43538 0.381175 0)
(3.37927 0.473255 0)
(3.31103 0.640287 0)
(3.25135 0.739969 0)
(3.2003 0.857274 0)
(3.23246 0.906309 0)
(3.76588 0.00246556 0)
(3.7543 0.0227381 0)
(3.72426 0.0821099 0)
(3.66104 0.217927 0)
(3.58365 0.400836 0)
(3.43905 0.692717 0)
(3.35478 0.942403 0)
(3.16109 1.15471 0)
(3.11536 1.07598 0)
(3.17803 1.0007 0)
(3.76769 -2.42671e-05 0)
(3.76764 8.93733e-05 0)
(3.76749 0.000343526 0)
(3.76639 0.00270177 0)
(3.75933 0.0199121 0)
(3.73762 0.0786245 0)
(3.67706 0.257551 0)
(3.59896 0.584514 0)
(3.41532 0.87227 0)
(3.29886 0.942322 0)
(3.76768 -4.90139e-06 0)
(3.76768 -4.69647e-06 0)
(3.76768 -7.53349e-06 0)
(3.76767 9.86578e-06 0)
(3.76769 -6.93183e-05 0)
(3.76743 0.000664088 0)
(3.76098 0.0194711 0)
(3.73617 0.161637 0)
(3.57826 0.676011 0)
(3.37797 0.849122 0)
(3.76768 -6.18643e-08 0)
(3.76768 -7.1346e-07 0)
(3.76768 -2.22881e-06 0)
(3.76768 -1.79922e-06 0)
(3.76769 -2.45336e-05 0)
(3.76769 -1.78425e-05 0)
(3.76764 3.16124e-05 0)
(3.76335 0.00600417 0)
(3.67463 0.147343 0)
(3.35421 0.395926 0)
)
;

boundaryField
{
    inlet
    {
        type            fixedValue;
        value           uniform (3.76768 0 0);
    }
    outlet
    {
        type            zeroGradient;
    }
    bottom
    {
        type            symmetryPlane;
    }
    top
    {
        type            symmetryPlane;
    }
    obstacle
    {
        type            slip;
    }
    defaultFaces
    {
        type            empty;
    }
}


// ************************************************************************* //
