/*--------------------------------*- C++ -*----------------------------------*\
| =========                 |                                                 |
| \\      /  F ield         | OpenFOAM: The Open Source CFD Toolbox           |
|  \\    /   O peration     | Version:  2206                                  |
|   \\  /    A nd           | Website:  www.openfoam.com                      |
|    \\/     M anipulation  |                                                 |
\*---------------------------------------------------------------------------*/
FoamFile
{
    version     2.0;
    format      ascii;
    arch        "LSB;label=32;scalar=64";
    class       volScalarField;
    location    "0.16";
    object      T;
}
// * * * * * * * * * * * * * * * * * * * * * * * * * * * * * * * * * * * * * //

dimensions      [0 0 0 1 0 0 0];

internalField   nonuniform List<scalar> 
4800
(
1
1
1
1
1
1
1
1
1
1
1
1
1
1
1
1
1
1
1
1
1
1
1
1
1
1
1
1
1
1
1
1
1
1
1
1
1
1
1
1
1
1
1
1
1
1
1
1
1
1
1
1
1
1
1
1
1
1
1
1
1
1
1
1
1
1
1
1
1
1
1
1
1
1
1
1
1
1
1
1
1
1
1
1
1
1
1
1
1
1
1
1
1
1
1
1
1
1
1
1
1
1
1
1
1
1
1
1
1
1
1
1
1
1
1
1
1
1
1
1
1
1
1
1
1
1
1
1
1
1
1
1
1
1
1
1
1
1
1
1
1
1
1
1
1
1
1
1
1
1
1
1
1
1
1
1
1
1
1
1
1
1
1
1
1
1
1
1
1
1
1
1
1
1
1
1
1
1
1
1
1
1
1
1
1
1
1
1
1
1
1
1
1
1
1
1
1
1
1
1
1
1
1
1
1
1
1
1
1
1
1
1
1
1
1
1
1
1
1
1
1
1
1
1
1
1
1
1
1
1
1
1
1
1
1
1
1
1
1
1
1
1
1
1
1
1
1
1
1
1
1
1
1
1
1
1
1
1
1
1
1
1
1
1
1
1
1
1
1
1
1
1
1
1
1
1
1
1
1
1
1
1
1
1
1
1
1
1
1
1
1
1
1
1
1
1
1
1
1
1
1
1
1
1
1
1
1
1
1
1
1
1
1
1
1
1
1
1
1
1
1
1
1
1
1
1
1
1
1
1
1
1
1
1
1
1
1
1
1
1
1
1
1
1
1
1
1
1
1
1
1
1
1
1
1
1
1
1
1
1
1
1
1
1
1
1
1
1
1
1
1
1
1
1
1
1
1
1
1
1
1
1
1
1
1
1
1
1
1
1
1
1
1
1
1
1
1
1
1
1
1
1
1
1
1
1
1
1
1
1
1
1
1
1
1
1
1
1
1
1
1
1
1
1
1
1
1
1
1
1
1
1
1
1
1
1
1
1
1
1
1
1
1
1
1
1
1
1
1
1
1
1
1
1
1
1
1
1
1
1
1
1
1
1
1
1
1
1
1
1
1
1
1
1
1
1
1
1
1
1
1
1
1
1
1
1
1
1
1
1
1
1
1
1
1
1
1
1
1
1
1
1
1
1
1
1
1
1
1
1
1
1
1
1
1
1
1
1
1
1
1
1
1
1
1
1
1
1
1
1
1
1
1
1
1
1
1
1
1
1
1
1
1
1
1
1
1
1
1
1
1
1
1
1
1
1
1
1
1
1
1
1
1
1
1
1
1
1
1
1
1
1
1
1
1
1
1
1
1
1
1
1
1
1
1
1
1
1
1
1
1
1
1
1
1
1
1
1
1
1
1
1
1
1
1
1
1
1
1
1
1
1
1
1
1
1
1
1
1
1
1
1
1
1
1
1
1
1
1
1
1
1
1
1
1
1
1
1
1
1
1
1
1
1
1
1
1
1
1
1
1
1
1
1
1
1
1
1
1
1
1
1
1
1
1
1
1
1
1
1
1
1
1
1
1
1
1
1
1
1
1
1
1
1
1
1
1
1
1
1
1
1
1
1
1
1
1
1
1
1
1
1
1
1
1
1
1
1
1
1
1
1
1
1
1
1
1
1
1
1
1
1
1
1
1
1
1
1
1
1
1
1
1
1
1
1
1
1
1
1
1
1
1
1
1
1
1
1
1
1
1
1
1
1
1
1
1
1
1
1
1
1
1
1
1
1
1
1
1
1
1
1
1
1
1
1
1
1
1
1
1
1
1
1
1
1
1
1
1
1
1
1
1
1
1
1
1
1
1
1
1
1
1
1
1
1
1
1
1
1
1
1
1
1
1
1
1
1
1
1
1
1
1
1
1
1
1
1
1
1
1
1
1
1
1
1
1
1
1
1
1
1
1
1
1
1
1
1
1
1
1
1
1
1
1
1
1
1
1
1
1
1
1
1
1
1
1
1
1
1
1
1
1
1
1
1
1
1
1
1
1
1
1
1
1
1
1
1
1
1
1
1
1
1
1
1
1
1
1
1
1
1
1
1
1
1
1
1
1
1
1
1
1
1
1
1
1
1
1
1
1
1
1
1
1
1
1
1
1
1
1
1
1
1
1
1
1
1
1
1
1
1
1
1
1
1
1
1
1
1
1
1
1
1
1
1
1
1
1
1
1
1
1
1
1
1
1
1
1
1
1
1
1
1
1
1
1
1
1
1
1
1
1
1
1
1
1
1
1
1
1
1
1
1
1
1
1
1
1
1
1
1
1
1
1
1
1
1
1
1
1
1
1
1
1
1
1
1
1
1
1
1
1
1
1
1
1
1
1
1
1
1
1
1
1
1
1
1
1
1
1
1
1
1
1
1
1
1
1
1
1
1
1
1
1
1
1
1
1
1
1
1
1
1
1
1
1
1
1
1
1
1
1
1
1
1
1
1
1
1
1
1
1
1
1
1
1
1
1
1
1
1
1
1
1
1
1
1
1
1
1
1
1
1
1
1
1
1
1
1
1
1
1
1
1
1
1
1
1
1
1
1
1
1
1
1
1
1
1
1
1
1
1
1
1
1
1
1
1
1
1
1
1
1
1
1
1
1
1
1
1
1
1
1
1
1
1
1
1
1
1
1
1
1
1
1
1
1
1
1
1
1
1
1
1
1
1
1
1
1
1
1
1
1
1
1
1
1
1
1
1
1
1
1
1
1
1
1
1
1
1
1
1
1
1
1
1
1
1
1
1
1
1
1
1
1
1
1
1
1
1
1
1
1
1
1
1
1
1
1
1
1
1
1
1
1
1
1
1
1
1
1
1
1
1
1
1
1
1
1
1
1
1
1
1
1
1
1
1
1
1
1
1
1
1
1
1
1
1
1
1
1
1
1
1
1
1
1
1
1
1
1
1
1
1
1
1
1
1
1
1
1
1
1
1
1
1
1
1
1
1
1
1
1
1
1
1
1
1
1
1
1
1
1
1
1
1
1
1
1
1
1
1
1
1
1
1
1
1
1
1
1
1
1
1
1
1
1
1
1
1
1
1
1
1
1
1
1
1
1
1
1
1
1
1
1
1
1
1
1
1
1
1
1
1
1
1
1
1
1
1
1
1
1
1
1
1
1
1
1
1
1
1
1
1
1
1
1
1
1
1
1
1
1
1
1
1
1
1
1
1
1
1
1
1
1
1
1
1
1
1
1
1
1
1
1
1
1
1
1
1
1
1
1
1
1
1
1
1
1
1
1
1
1
1
1
1
1
1
1
1
1
1
1
1
1
1
1
1
1
1
1
1
1
1
1
1
1
1
1
1
1
1
1
1
1
1
1
1
1
1
1
1
1
1
1
1
1
1
1
1
1
1
1
1
1
1
1
1
1
1
1
1
1
1
1
1
1
1
1
1
1
1
1
1
1
1
1
1
1
1
1
1
1
1
1
1
1
1
1
1
1
1
1
1
1
1
1
1
1
1
1
1
1
1
1
1
1
1
1
1
1
1
1
1
1
1
1
1
1
1
1
1
1
1
1
1
1
1
1
1
1
1
1
1
1
1
1
1
1
1
1
1
1
1
1
1
1
1
1
1
1
1
1
1
1
1
1
1
1
1
1
1
1
1
1
1
1
1
1
1.07013
1.16188
1.25532
1.34904
1.45908
1.55828
1.62596
1.69552
1.80712
1.91072
1.94954
1.97668
2.0267
2.0824
2.08985
2.08255
2.07093
2.05611
2.02961
1.98173
1.9168
1.87759
1.85984
1.83574
1.81235
1.81396
1.82016
1.82174
1.82072
1.82391
1.8333
1.85261
1.86733
1.86795
1.86341
1.85667
1.85556
1.85893
1.8639
1.86929
1.87771
1.88396
1.88513
1.88467
1.88088
1.87267
1.86636
1.86541
1.86653
1.87153
1.88021
1.88667
1.88885
1.88862
1.88631
1.88287
1.87869
1.87397
1.87121
1.87089
1.87262
1.87855
1.88686
1.89328
1.89596
1.8958
1.89287
1.88554
1.87513
1.86971
1.86909
1.87041
1.87538
1.88407
1.89241
1.896
1.89733
1.89753
1.89631
1.89234
1
1
0.999992
0.999762
0.999037
1.02407
1.10082
1.14378
1.19223
1.30477
1.43186
1.48631
1.53165
1.62559
1.69115
1.72794
1.76578
1.80281
1.82015
1.82866
1.87023
1.9158
1.92847
1.9233
1.90612
1.89935
1.89826
1.89317
1.8804
1.87058
1.86572
1.86735
1.86894
1.86693
1.86246
1.8623
1.86515
1.86982
1.87276
1.8743
1.87677
1.88111
1.88443
1.88496
1.88425
1.88119
1.88019
1.88027
1.88103
1.88194
1.88196
1.88197
1.88434
1.88727
1.88847
1.88829
1.8872
1.88661
1.8856
1.88396
1.88271
1.88285
1.8833
1.8855
1.88989
1.89234
1.89192
1.88843
1.8856
1.88424
1.8836
1.88481
1.88737
1.88908
1.88944
1.88954
1.88983
1.89047
1.89194
1.89271
1
1
1
1
1
0.999999
1
0.999998
1
1
0.999349
1.0056
1.01974
1.07849
1.20969
1.30626
1.4376
1.6005
1.75354
1.8824
1.94743
2.01959
2.01947
2.00947
1.99481
1.9836
1.97436
1.96306
1.94601
1.91307
1.89266
1.88871
1.88793
1.88612
1.88629
1.88827
1.89147
1.89618
1.89645
1.89622
1.89514
1.8946
1.89438
1.89429
1.8959
1.90042
1.90272
1.9041
1.90429
1.90318
1.89894
1.89412
1.89238
1.89265
1.89609
1.90205
1.90478
1.90494
1.90456
1.90317
1.89951
1.89454
1.89165
1.89085
1.8906
1.8918
1.8962
1.90096
1.90272
1.90286
1.9031
1.90314
1.90237
1.90035
1.89697
1.89339
1.89029
1.88855
1.8885
1.89329
1
1
1
1
1
1
1
1
1
1
1
1
1
1
1
0.999551
1.0012
1.03248
1.12885
1.35204
1.54531
1.72327
1.86031
1.90157
1.94832
1.9737
1.97027
1.9656
1.96237
1.96229
1.95821
1.95164
1.94514
1.93906
1.93838
1.93862
1.93533
1.92852
1.91974
1.91175
1.90576
1.90413
1.90513
1.90796
1.91341
1.92342
1.93162
1.93426
1.9341
1.93048
1.92049
1.91024
1.90713
1.90708
1.90901
1.91485
1.92238
1.92684
1.92753
1.92626
1.92137
1.91344
1.90628
1.90279
1.9019
1.90216
1.90439
1.91066
1.91839
1.92204
1.92235
1.92129
1.91826
1.91375
1.9078
1.90166
1.89824
1.89723
1.89722
1.90059
1
1
1
1
1
1
1
1
1
1
1
1
1
1
1
1
1
1
1
0.999428
1.00531
1.04124
1.21424
1.42051
1.56846
1.72465
1.83414
1.96364
2.01228
2.0206
2.01809
2.01182
2.00281
1.99038
1.98066
1.97063
1.9561
1.94836
1.94465
1.93995
1.93244
1.92667
1.9252
1.92593
1.92978
1.93912
1.94812
1.95101
1.95064
1.94731
1.93939
1.93104
1.92945
1.92957
1.92976
1.93108
1.93472
1.9403
1.94365
1.94376
1.94035
1.93233
1.92433
1.92067
1.9199
1.91948
1.9196
1.92135
1.92599
1.93183
1.93533
1.93575
1.9335
1.92775
1.92114
1.91598
1.91357
1.91309
1.91273
1.91368
1
1
1
1
1
1
1
1
1
1
1
1
1
1
1
1
1
1
1
1
1
1
1
0.999316
1.00594
1.08619
1.2623
1.4533
1.64745
1.77341
1.90046
1.9385
1.95506
1.95323
1.94348
1.94699
1.96274
1.9691
1.97452
1.97252
1.96658
1.95871
1.94795
1.93886
1.93793
1.93921
1.94197
1.94509
1.94738
1.94784
1.94813
1.95072
1.9517
1.95094
1.94795
1.94474
1.94363
1.94413
1.94629
1.94803
1.94838
1.94796
1.94698
1.94521
1.94288
1.93993
1.93755
1.93738
1.93691
1.93635
1.93647
1.9378
1.93892
1.93906
1.93786
1.93584
1.93411
1.93286
1.93135
1.93048
1
1
1
1
1
1
1
1
1
1
1
1
1
1
1
1
1
1
1
1
1
1
1
1
1
1
0.999685
1.00011
1.04402
1.14439
1.30526
1.51884
1.67984
1.80967
1.87191
1.92625
1.96236
1.97327
1.97818
1.97901
1.9776
1.97199
1.95952
1.94231
1.93788
1.93836
1.94004
1.94191
1.94248
1.94508
1.95201
1.95951
1.96199
1.9616
1.95636
1.94857
1.9453
1.94373
1.94343
1.94447
1.9489
1.95528
1.95942
1.96131
1.96196
1.96132
1.95706
1.94836
1.9431
1.93947
1.93819
1.93805
1.93949
1.9438
1.94834
1.95086
1.95122
1.95138
1.95072
1.94685
1
1
1
1
1
1
1
1
1
1
1
1
1
1
1
1
1
1
1
1
1
1
1
1
1
1
1
1
1
1
0.999431
1.01634
1.06675
1.18878
1.42764
1.60391
1.74757
1.81324
1.86281
1.90774
1.93262
1.94657
1.94814
1.94852
1.94514
1.94313
1.94191
1.93776
1.93611
1.93826
1.94564
1.95441
1.95726
1.95693
1.95637
1.95177
1.94392
1.94151
1.94139
1.94218
1.94422
1.94909
1.95721
1.96371
1.96553
1.96533
1.96362
1.95858
1.94834
1.94273
1.94151
1.94167
1.94312
1.94487
1.94911
1.95569
1.95944
1.95981
1.95943
1.95536
1
1
1
1
1
1
1
1
1
1
1
1
1
1
1
1
1
1
1
1
1
1
1
1
1
1
1
1
1
1
1
1
1
0.999624
1.0048
1.03216
1.13827
1.35084
1.49981
1.64009
1.74862
1.86561
1.92607
1.939
1.9426
1.94085
1.93872
1.93216
1.92085
1.92057
1.92562
1.93574
1.94271
1.94515
1.94675
1.94973
1.95047
1.94832
1.94408
1.93972
1.93914
1.94092
1.94529
1.95101
1.95749
1.96117
1.96115
1.95948
1.95791
1.95439
1.95055
1.94819
1.94696
1.94751
1.94975
1.95193
1.95472
1.95687
1.95722
1.95458
1
1
1
1
1
1
1
1
1
1
1
1
1
1
1
1
1
1
1
1
1
1
1
1
1
1
1
1
1
1
1
1
1
1
1
1
0.999839
1.00113
1.01037
1.09318
1.28255
1.45456
1.62825
1.73305
1.83784
1.8909
1.90826
1.90781
1.90405
1.90376
1.90775
1.91855
1.92486
1.92898
1.9349
1.93961
1.94217
1.94481
1.9458
1.9446
1.9386
1.9337
1.93354
1.93574
1.93907
1.94287
1.9468
1.94983
1.95168
1.95367
1.9569
1.95756
1.95672
1.95349
1.94903
1.94846
1.94905
1.94875
1.94779
1.94776
1
1
1
1
1
1
1
1
1
1
1
1
1
1
1
1
1
1
1
1
1
1
1
1
1
1
1
1
1
1
1
1
1
1
1
1
1
1
1
1
0.999914
1.00793
1.09656
1.24845
1.41039
1.57836
1.71836
1.85541
1.88306
1.89758
1.90111
1.903
1.90205
1.90093
1.9051
1.91647
1.93002
1.93613
1.93656
1.93732
1.93856
1.93705
1.93017
1.92605
1.92561
1.92695
1.92867
1.93041
1.93511
1.94573
1.95384
1.95654
1.95669
1.95631
1.95255
1.94546
1.94089
1.93959
1.93936
1.9416
1
1
1
1
1
1
1
1
1
1
1
1
1
1
1
1
1
1
1
1
1
1
1
1
1
1
1
1
1
1
1
1
1
1
1
1
1
1
1
1
1
1
0.999999
0.999704
1.00622
1.08
1.20976
1.42254
1.61142
1.7451
1.84253
1.86876
1.86542
1.87563
1.87512
1.8786
1.89335
1.91252
1.92403
1.92885
1.92951
1.92854
1.92949
1.92995
1.92699
1.9202
1.91561
1.91653
1.92112
1.92766
1.93774
1.94563
1.94768
1.9477
1.94691
1.94557
1.94214
1.93757
1.93541
1.93675
1
1
1
1
1
1
1
1
1
1
1
1
1
1
1
1
1
1
1
1
1
1
1
1
1
1
1
1
1
1
1
1
1
1
1
1
1
1
1
1
1
1
1
1
1
0.999998
0.999733
1.01227
1.1133
1.2413
1.43692
1.60638
1.77601
1.85019
1.86147
1.86325
1.86877
1.86952
1.88237
1.90312
1.91204
1.91636
1.92011
1.92289
1.92513
1.9256
1.92197
1.9129
1.91049
1.91324
1.91868
1.92291
1.92608
1.9301
1.93451
1.93564
1.93433
1.93413
1.93632
1.93977
1
1
1
1
1
1
1
1
1
1
1
1
1
1
1
1
1
1
1
1
1
1
1
1
1
1
1
1
1
1
1
1
1
1
1
1
1
1
1
1
1
1
1
1
1
1
1
1
0.999979
1.00004
1.01802
1.10933
1.28736
1.49612
1.67756
1.8272
1.85807
1.85279
1.86236
1.86515
1.86842
1.87716
1.89338
1.91062
1.91848
1.91805
1.91624
1.91627
1.91523
1.91341
1.91161
1.91025
1.91098
1.91349
1.91701
1.91951
1.92234
1.92639
1.92902
1.93425
1
1
1
1
1
1
1
1
1
1
1
1
1
1
1
1
1
1
1
1
1
1
1
1
1
1
1
1
1
1
1
1
1
1
1
1
1
1
1
1
1
1
1
1
1
1
1
1
1
1
1
0.999844
1.00182
1.0462
1.16756
1.40352
1.58511
1.74887
1.82659
1.8524
1.85472
1.85583
1.85843
1.87462
1.89521
1.90431
1.90707
1.90893
1.91076
1.91527
1.91772
1.91617
1.90923
1.90341
1.90345
1.90666
1.90957
1.91157
1.91487
1.92623
1
1
1
1
1
1
1
1
1
1
1
1
1
1
1
1
1
1
1
1
1
1
1
1
1
1
1
1
1
1
1
1
1
1
1
1
1
1
1
1
1
1
1
1
1
1
1
1
1
1
1
0.999999
0.999994
1.00002
1.0001
1.01254
1.09971
1.25393
1.45545
1.65437
1.84016
1.86409
1.85645
1.86377
1.87404
1.87479
1.87233
1.87656
1.89063
1.90756
1.91168
1.90914
1.90772
1.9082
1.90795
1.90604
1.90247
1.90233
1.90453
1.9142
1
1
1
1
1
1
1
1
1
1
1
1
1
1
1
1
1
1
1
1
1
1
1
1
1
1
1
1
1
1
1
1
1
1
1
1
1
1
1
1
1
1
1
1
1
1
1
1
1
1
1
1
1
1
1
1.00001
0.99998
1.0017
1.0347
1.15254
1.44684
1.65525
1.78713
1.84861
1.87471
1.87392
1.86277
1.85852
1.86701
1.88531
1.89583
1.89801
1.90052
1.90406
1.90892
1.91176
1.90965
1.90707
1.90752
1.90825
1
1
1
1
1
1
1
1
1
1
1
1
1
1
1
1
1
1
1
1
1
1
1
1
1
1
1
1
1
1
1
1
1
1
1
1
1
1
1
1
1
1
1
1
1
1
1
1
1
1
1
1
1
1
1
1
0.999999
0.999999
0.99996
1.00046
1.02748
1.18797
1.35896
1.54009
1.73869
1.86984
1.88197
1.87805
1.88635
1.88286
1.88176
1.87749
1.87358
1.88055
1.8956
1.90605
1.90551
1.90302
1.90361
1.90759
1
1
1
1
1
1
1
1
1
1
1
1
1
1
1
1
1
1
1
1
1
1
1
1
1
1
1
1
1
1
1
1
1
1
1
1
1
1
1
1
1
1
1
1
1
1
1
1
1
1
1
1
1
1
1
1
1
1
0.999999
0.999998
0.99997
1.00085
1.01108
1.08418
1.25529
1.57815
1.77292
1.85514
1.88932
1.88988
1.89051
1.88667
1.87708
1.8776
1.88369
1.89027
1.89448
1.89304
1.89602
1.90404
1
1
1
1
1
1
1
1
1
1
1
1
1
1
1
1
1
1
1
1
1
1
1
1
1
1
1
1
1
1
1
1
1
1
1
1
1
1
1
1
1
1
1
1
1
1
1
1
1
1
1
1
1
1
1
1
1
1
1
1
0.999999
1
0.999987
1.00008
1.00452
1.12197
1.40459
1.58385
1.71588
1.84289
1.89772
1.90081
1.89909
1.90665
1.90381
1.894
1.88705
1.88167
1.88091
1.89145
1
1
1
1
1
1
1
1
1
1
1
1
1
1
1
1
1
1
1
1
1
1
1
1
1
1
1
1
1
1
1
1
1
1
1
1
1
1
1
1
1
1
1
1
1
1
1
1
1
1
1
1
1
1
1
1
1
1
1
1
1
1
0.999999
0.999999
0.999987
1.00089
1.01799
1.12893
1.30893
1.54546
1.74969
1.83752
1.88778
1.9053
1.90653
1.90397
1.89936
1.89391
1.89191
1.89456
1
1
1
1
1
1
1
1
1
1
1
1
1
1
1
1
1
1
1
1
1
1
1
1
1
1
1
1
1
1
1
1
1
1
1
1
1
1
1
1
1
1
1
1
1
1
1
1
1
1
1
1
1
1
1
1
1
1
1
1
1
1
1
1
0.999999
0.999999
0.999981
1.0008
1.00795
1.08643
1.37887
1.68172
1.76949
1.83218
1.88726
1.90101
1.90279
1.90594
1.90852
1.9096
1
1
1
1
1
1
1
1
1
1
1
1
1
1
1
1
1
1
1
1
1
1
1
1
1
1
1
1
1
1
1
1
1
1
1
1
1
1
1
1
1
1
1
1
1
1
1
1
1
1
1
1
1
1
1
1
1
1
1
1
1
1
1
1
1
1
0.999999
0.999999
0.999989
1.0007
1.02283
1.21979
1.49831
1.66926
1.82052
1.8555
1.85627
1.8733
1.89955
1.90623
1
1
1
1
1
1
1
1
1
1
1
1
1
1
1
1
1
1
1
1
1
1
1
1
1
1
1
1
1
1
1
1
1
1
1
1
1
1
1
1
1
1
1
1
1
1
1
1
1
1
1
1
1
1
1
1
1
1
1
1
1
1
1
1
1
1
1
1
0.999999
0.999997
1.00002
1.00507
1.07303
1.22979
1.50802
1.79444
1.85092
1.87413
1.8892
1.8885
1
1
1
1
1
1
1
1
1
1
1
1
1
1
1
1
1
1
1
1
1
1
1
1
1
1
1
1
1
1
1
1
1
1
1
1
1
1
1
1
1
1
1
1
1
1
1
1
1
1
1
1
1
1
1
1
1
1
1
1
1
1
1
1
1
1
1
1
1
1
1
0.999994
1.00026
1.00717
1.06707
1.36893
1.69102
1.84289
1.9002
1.89138
1
1
1
1
1
1
1
1
1
1
1
1
1
1
1
1
1
1
1
1
1
1
1
1
1
1
1
1
1
1
1
1
1
1
1
1
1
1
1
1
1
1
1
1
1
1
1
1
1
1
1
1
1
1
1
1
1
1
1
1
1
1
1
1
1
1
1
1
1
1
1
1
1
0.999994
1.00043
1.02839
1.29049
1.55341
1.74816
1.87099
1
1
1
1
1
1
1
1
1
1
1
1
1
1
1
1
1
1
1
1
1
1
1
1
1
1
1
1
1
1
1
1
1
1
1
1
1
1
1
1
1
1
1
1
1
1
1
1
1
1
1
1
1
1
1
1
1
1
1
1
1
1
1
1
1
1
1
1
1
1
1
1
1
0.999999
0.999998
1.00017
1.0121
1.13802
1.34431
1.74031
1
1
1
1
1
1
1
1
1
1
1
1
1
1
1
1
1
1
1
1
1
1
1
1
1
1
1
1
1
1
1
1
1
1
1
1
1
1
1
1
1
1
1
1
1
1
1
1
1
1
1
1
1
1
1
1
1
1
1
1
1
1
1
1
1
1
1
1
1
1
1
1
1
1
1
1
1
1.00242
1.02203
1.46801
1
1
1
1
1
1
1
1
1
1
1
1
1
1
1
1
1
1
1
1
1
1
1
1
1
1
1
1
1
1
1
1
1
1
1
1
1
1
1
1
1
1
1
1
1
1
1
1
1
1
1
1
1
1
1
1
1
1
1
1
1
1
1
1
1
1
1
1
1
1
1
1
1
1
1
1
1
0.999998
1.00018
1.10404
1
1
1
1
1
1
1
1
1
1
1
1
1
1
1
1
1
1
1
1
1
1
1
1
1
1
1
1
1
1
1
1
1
1
1
1
1
1
1
1
1
1
1
1
1
1
1
1
1
1
1
1
1
1
1
1
1
1
1
1
1
1
1
1
1
1
1
1
1
1
1
1
1
1
1
1
1
1
1
1.00599
1
1
1
1
1
1
1
1
1
1
1
1
1
1
1
1
1
1
1
1
1
1
1
1
1
1
1
1
1
1
1
1
1
1
1
1
1
1
1
1
1
1
1
1
1
1
1
1
1
1
1
1
1
1
1
1
1
1
1
1
1
1
1
1
1
1
1
1
1
1
1
1
1
1
1
1
1
1
1
1.00011
1
1
1
1
1
1
1
1
1
1
1
1
1
1
1
1
1
1
1
1
1
1
1
1
1
1
1
1
1
1
1
1
1
1
1
1
1
1
1
1
1
1
1
1
1
1
1
1
1
1
1
1
1
1
1
1
1
1
1
1
1
1
1
1
1
1
1
1
1
1
1
1
1
1
1
1
1
1
1
1
1
1
1
1
1
1
1
1
1
1
1
1
1
1
1
1
1
1
1
1
1
1
1
1
1
1
1
1
1
1
1
1
1
1
1
1
1
1
1
1
1
1
1
1
1
1
1
1
1
1
1
1
1
1
1
1
1
1
1
1
1
1
1
1
1
1
1
1
1
1
1
1
1
1
1
1
1
1
1
1
1
1
1
1
1
1
1
1
1
1
1
1
1
1
1
1
1
1
1
1
1
1
1
1
1
1
1
1
1
1
1
1
1
1
1
1
1
1
1
1
1
1
1
1
1
1
1
1
1
1
1
1
1
1
1
1
1
1
1
1
1
1
1
1
1
1
1
1
1
1
1
1
1
1
1
1
1
1
1
1
1
1
1
1
1
1
1
1
1
1
1
1
1
1
1
1
1
1
1
1
1
1
1
1
1
1
1
1
1
1
1
1
1
1
1
1
1
1
1
1
1
1
1
1
1
1
1
1
1
1
1
1
1
1
1
1
1
1
1
1
1
1
1
1
1
1
1
1
1
1
1
1
1
1
1
1
1
1
1
1
1
1
1
1
1
1
1
1
1
1
1
1
1
1
1
1
1
1
1
1
1
1
1
1
1
1
1
1
1
1
1
1
1
1
1
1
1
1
1
1
1
1
1
1
1
1
1
1
1
1
1
1
1
1
1
1
1
1
1
1
1
1
1
1
1
1
1
1
1
1
1
1
1
1
1
1
1
1
1
1
1
1
1
1
1
1
1
1
1
1
1
1
1
1
1
1
1
1
1
1
1
1
1
1
1
1
1
1
1
1
1
1
1
1
1
1
1
1
1
1
1
1
1
1
1
1
1
1
1
1
1
1
1
1
1
1
1
1
1
1
1
1
1
1
1
1
1
1
1
1
1
1
1
1
1
1
1
1
1
1
1
1
1
1
1
1
1
1
1
1
1
1
1
1
1
1
1
1
1
1
1
1
1
1
1
1
1
1
1
1
1
1
1
1
1
1
1
1
1
1
1
1
1
1
1
1
1
1
1
1
1
1
1
1
1
1
1
1
1
1
1
1
1
1
1
1
1
1
1
1
1
1
1
1
1
1
1
1
1
1
1
1
1
1
1
1
1
1
1
1
1
1
1
1
1
1
1
1
1
1
1
1
1
1
1
1
1
1
1
1
1
1
1
1
1
1
1
1
1
1
1
1
1
1
1
1
1
1
1
1
1
1
1
1
1
1
1
1
1
1
1
1
1
1
1
1
1
1
1
1
1
1
1
1
1
1
1
1
1
1
1
1
1
1
1
1
1
1
1
1
1
1
1
1
1
1
1
1
1
1
1
1
1
1
1
1
1
1
1
1
1
1
1
1
1
1
1
1
1
1
1
1
1
1
1
1
1
1
1
1
1
1
1
1
1
1
1
1
1
1
1
1
1
1
1
1
1
1
1
1
1
1
1
1
1
1
1
1
1
1
)
;

boundaryField
{
    inlet
    {
        type            fixedValue;
        value           uniform 1;
    }
    outlet
    {
        type            zeroGradient;
    }
    bottom
    {
        type            symmetryPlane;
    }
    top
    {
        type            symmetryPlane;
    }
    obstacle
    {
        type            zeroGradient;
    }
    defaultFaces
    {
        type            empty;
    }
}


// ************************************************************************* //
