/*--------------------------------*- C++ -*----------------------------------*\
| =========                 |                                                 |
| \\      /  F ield         | OpenFOAM: The Open Source CFD Toolbox           |
|  \\    /   O peration     | Version:  2206                                  |
|   \\  /    A nd           | Website:  www.openfoam.com                      |
|    \\/     M anipulation  |                                                 |
\*---------------------------------------------------------------------------*/
FoamFile
{
    version     2.0;
    format      ascii;
    arch        "LSB;label=32;scalar=64";
    class       volVectorField;
    location    "0.02";
    object      U;
}
// * * * * * * * * * * * * * * * * * * * * * * * * * * * * * * * * * * * * * //

dimensions      [0 1 -1 0 0 0 0];

internalField   nonuniform List<vector> 
4800
(
(6.67677 1.85032e-15 0)
(6.67677 -1.86732e-14 0)
(6.67677 -1.86999e-14 0)
(6.67677 -1.16353e-14 0)
(6.67677 -4.71748e-15 0)
(6.67677 -2.62045e-15 0)
(6.67677 -5.08621e-14 0)
(6.67677 -6.13273e-14 0)
(6.67677 -5.41927e-14 0)
(6.67677 -1.00551e-14 0)
(6.67677 5.04821e-14 0)
(6.67677 6.96854e-14 0)
(6.67677 6.46712e-14 0)
(6.67677 4.75249e-14 0)
(6.67677 9.2916e-15 0)
(6.67677 1.11419e-14 0)
(6.67677 -1.09052e-14 0)
(6.67677 -3.72231e-14 0)
(6.67677 -4.51978e-14 0)
(6.67677 -3.71264e-14 0)
(6.67677 4.73415e-15 0)
(6.67677 5.24791e-14 0)
(6.67677 5.50095e-14 0)
(6.67677 1.1646e-13 0)
(6.67677 1.62945e-13 0)
(6.67677 1.69793e-13 0)
(6.67677 1.76831e-13 0)
(6.67677 1.03858e-13 0)
(6.67677 -2.41442e-14 0)
(6.67677 -4.8375e-14 0)
(6.67677 -3.37992e-14 0)
(6.67677 4.01403e-14 0)
(6.67677 5.90235e-14 0)
(6.67677 4.12505e-14 0)
(6.67677 7.78834e-14 0)
(6.67677 8.88087e-14 0)
(6.67677 4.51645e-14 0)
(6.67677 -1.46825e-14 0)
(6.67677 -9.90071e-14 0)
(6.67677 -1.28205e-13 0)
(6.67677 -7.06789e-16 0)
(6.67677 -6.09439e-15 0)
(6.67677 5.69098e-15 0)
(6.67677 4.53945e-14 0)
(6.67677 6.03304e-14 0)
(6.67677 4.94552e-14 0)
(6.67677 -1.09086e-14 0)
(6.67677 -6.35843e-14 0)
(6.67677 -5.64197e-14 0)
(6.67677 -1.66895e-14 0)
(6.67677 1.07852e-14 0)
(6.67677 7.37361e-14 0)
(6.67677 8.99955e-14 0)
(6.67677 8.69584e-14 0)
(6.67677 2.1267e-14 0)
(6.67677 -3.72698e-14 0)
(6.67677 -4.43043e-14 0)
(6.67677 -5.46694e-14 0)
(6.67677 -5.42294e-14 0)
(6.67677 -5.65664e-14 0)
(6.67677 3.59996e-14 0)
(6.67677 1.44468e-13 0)
(6.67677 1.29572e-13 0)
(6.67677 8.65349e-14 0)
(6.67677 1.27812e-13 0)
(6.67677 1.14746e-13 0)
(6.67677 1.01001e-13 0)
(6.67677 9.02856e-14 0)
(6.67677 2.31907e-14 0)
(6.67677 -4.29341e-14 0)
(6.67677 7.76801e-16 0)
(6.67677 1.27872e-13 0)
(6.67677 1.40548e-13 0)
(6.67677 1.14923e-13 0)
(6.67677 1.26202e-13 0)
(6.67677 1.36717e-13 0)
(6.67677 1.10606e-13 0)
(6.67677 7.21025e-14 0)
(6.67677 5.05221e-14 0)
(6.67677 -3.69323e-14 0)
(6.67677 6.45778e-15 0)
(6.67677 3.4526e-14 0)
(6.67677 3.47593e-14 0)
(6.67677 2.42842e-14 0)
(6.67677 1.99501e-14 0)
(6.67677 1.91533e-14 0)
(6.67677 2.94184e-14 0)
(6.67677 2.21838e-14 0)
(6.67677 2.38508e-14 0)
(6.67677 3.62463e-14 0)
(6.67677 1.32223e-14 0)
(6.67677 -2.44976e-14 0)
(6.67677 -7.80802e-15 0)
(6.67677 7.80468e-15 0)
(6.67677 4.0267e-14 0)
(6.67677 3.98469e-14 0)
(6.67677 -1.45725e-14 0)
(6.67677 -5.25191e-14 0)
(6.67677 -7.24058e-14 0)
(6.67677 -3.99369e-14 0)
(6.67677 5.10321e-14 0)
(6.67677 9.82736e-14 0)
(6.67677 1.49806e-13 0)
(6.67677 1.01994e-13 0)
(6.67677 3.33458e-14 0)
(6.67677 -1.29022e-14 0)
(6.67677 -2.77115e-14 0)
(6.67677 3.01152e-14 0)
(6.67677 1.01911e-13 0)
(6.67677 1.21808e-13 0)
(6.67677 1.12993e-13 0)
(6.67677 8.92988e-14 0)
(6.67677 1.01224e-13 0)
(6.67677 1.46992e-13 0)
(6.67677 1.75117e-13 0)
(6.67677 7.70533e-14 0)
(6.67677 2.94718e-15 0)
(6.67677 -1.35223e-14 0)
(6.67677 -3.40659e-14 0)
(6.67677 -6.01513e-14 0)
(6.67677 -2.23372e-15 0)
(6.67677 -7.3346e-15 0)
(6.67677 -1.27055e-14 0)
(6.67677 -3.34324e-14 0)
(6.67677 -5.66931e-14 0)
(6.67677 -7.31493e-14 0)
(6.67677 -6.5588e-14 0)
(6.67677 -4.13905e-14 0)
(6.67677 3.59062e-15 0)
(6.67677 5.08188e-14 0)
(6.67677 3.63596e-14 0)
(6.67677 -5.28025e-14 0)
(6.67677 -1.13606e-13 0)
(6.67677 -1.03318e-13 0)
(6.67677 -8.94521e-14 0)
(6.67677 -2.3394e-14 0)
(6.67677 9.81169e-15 0)
(6.67677 1.04151e-14 0)
(6.67677 1.64262e-14 0)
(6.67677 5.789e-14 0)
(6.67677 6.97287e-14 0)
(6.67677 1.64628e-14 0)
(6.67677 -1.7453e-14 0)
(6.67677 -1.88233e-14 0)
(6.67677 -3.62096e-14 0)
(6.67677 3.16055e-15 0)
(6.67677 -5.79433e-15 0)
(6.67677 3.92968e-14 0)
(6.67677 8.01938e-14 0)
(6.67677 1.09129e-13 0)
(6.67677 8.01438e-14 0)
(6.67677 7.57197e-14 0)
(6.67677 1.11603e-13 0)
(6.67677 8.46013e-14 0)
(6.67677 -2.63379e-16 0)
(6.67677 -3.79032e-14 0)
(6.67677 -5.2259e-14 0)
(6.67677 -4.39376e-14 0)
(6.67677 -1.63095e-14 0)
(6.67677 -7.36105e-14 0)
(6.67677 -6.86785e-15 0)
(6.67677 -3.29757e-14 0)
(6.67677 -3.01019e-14 0)
(6.67677 -2.85716e-14 0)
(6.67677 -4.38476e-14 0)
(6.67677 -6.10905e-14 0)
(6.67677 -5.87802e-14 0)
(6.67677 -3.49194e-14 0)
(6.67677 -9.06156e-15 0)
(6.67677 -1.57461e-14 0)
(6.67677 -1.18721e-14 0)
(6.67677 2.31307e-14 0)
(6.67677 7.31126e-15 0)
(6.67677 -4.11638e-14 0)
(6.67677 -5.0152e-14 0)
(6.67677 -2.40975e-14 0)
(6.67677 8.97455e-14 0)
(6.67677 9.71368e-14 0)
(6.67677 8.08706e-14 0)
(6.67677 1.1418e-13 0)
(6.67677 7.83269e-14 0)
(6.67677 4.58813e-14 0)
(6.67677 3.35058e-14 0)
(6.67677 -2.6888e-14 0)
(6.67677 -5.28091e-14 0)
(6.67677 -4.80816e-14 0)
(6.67677 -5.38226e-14 0)
(6.67677 -9.50164e-14 0)
(6.67677 -1.16093e-13 0)
(6.67677 -1.08205e-13 0)
(6.67677 -8.86253e-14 0)
(6.67677 -7.93037e-14 0)
(6.67677 -8.56248e-14 0)
(6.67677 -1.67619e-13 0)
(6.67677 -1.89763e-13 0)
(6.67677 -1.95774e-13 0)
(6.67677 -1.61448e-13 0)
(6.67677 -1.10282e-13 0)
(6.67677 6.88085e-14 0)
(6.67677 5.40512e-14 0)
(6.67677 -1.1602e-15 0)
(6.67677 2.25706e-15 0)
(6.67677 4.54745e-15 0)
(6.67677 -4.69081e-15 0)
(6.67677 -1.92e-14 0)
(6.67677 -1.67362e-15 0)
(6.67677 4.46744e-16 0)
(6.67677 3.21722e-14 0)
(6.67677 3.2559e-14 0)
(6.67677 7.17791e-15 0)
(6.67677 -2.58811e-14 0)
(6.67677 -4.95752e-15 0)
(6.67677 4.55745e-15 0)
(6.67677 1.38024e-14 0)
(6.67677 1.39924e-14 0)
(6.67677 4.20406e-15 0)
(6.67677 -3.29957e-14 0)
(6.67677 -4.74849e-14 0)
(6.67677 -6.30242e-14 0)
(6.67677 -1.31156e-14 0)
(6.67677 5.86935e-14 0)
(6.67677 1.15117e-13 0)
(6.67677 1.02358e-13 0)
(6.67677 2.82282e-14 0)
(6.67677 1.09119e-14 0)
(6.67677 -1.09292e-13 0)
(6.67677 -1.37787e-13 0)
(6.67677 -1.26982e-13 0)
(6.67677 -1.22204e-13 0)
(6.67677 -1.18497e-13 0)
(6.67677 -1.42425e-13 0)
(6.67677 -1.47515e-13 0)
(6.67677 -1.50403e-13 0)
(6.67677 -1.3477e-13 0)
(6.67677 -1.36597e-13 0)
(6.67677 -1.5481e-13 0)
(6.67677 -1.77281e-13 0)
(6.67677 -1.70196e-13 0)
(6.67677 -9.26993e-14 0)
(6.67677 -2.31822e-14 0)
(6.67677 6.64115e-15 0)
(6.67677 6.63781e-15 0)
(6.67677 1.22388e-14 0)
(6.67677 2.27839e-14 0)
(6.67677 4.32008e-14 0)
(6.67677 7.1549e-14 0)
(6.67677 6.89752e-14 0)
(6.67677 3.09587e-14 0)
(6.67677 -1.27655e-14 0)
(6.67677 -1.24421e-14 0)
(6.67677 -2.9145e-14 0)
(6.67677 -4.69948e-14 0)
(6.67677 -4.07137e-14 0)
(6.67677 -7.45129e-15 0)
(6.67677 -1.16787e-14 0)
(6.67677 -5.6163e-14 0)
(6.67677 -5.30825e-14 0)
(6.67677 -3.33024e-14 0)
(6.67677 1.26355e-15 0)
(6.67677 2.17404e-14 0)
(6.67677 3.02952e-14 0)
(6.67677 8.36478e-15 0)
(6.67677 -3.10054e-16 0)
(6.67677 6.16773e-15 0)
(6.67677 -6.06105e-15 0)
(6.67677 -9.99239e-14 0)
(6.67677 -1.45859e-13 0)
(6.67677 -9.8637e-14 0)
(6.67677 -1.07785e-13 0)
(6.67677 -1.24338e-13 0)
(6.67677 -8.38311e-14 0)
(6.67677 -6.18373e-14 0)
(6.67677 -4.92952e-14 0)
(6.67677 -5.65231e-14 0)
(6.67677 -8.20675e-14 0)
(6.67677 -5.26758e-15 0)
(6.67677 1.42891e-14 0)
(6.67677 4.03903e-14 0)
(6.67677 3.90367e-14 0)
(6.67677 8.2098e-14 0)
(6.67677 1.02684e-15 0)
(6.67677 -1.60028e-16 0)
(6.67677 5.61764e-15 0)
(6.67677 3.95068e-15 0)
(6.67677 1.20888e-14 0)
(6.67677 3.87067e-15 0)
(6.67677 -1.97401e-14 0)
(6.67677 -6.45345e-14 0)
(6.67677 -6.20941e-14 0)
(6.67677 -3.77232e-14 0)
(6.67677 7.73467e-15 0)
(6.67677 6.91953e-14 0)
(6.67677 1.03821e-13 0)
(6.67677 4.49144e-14 0)
(6.67677 2.64112e-14 0)
(6.67677 5.08188e-14 0)
(6.67677 7.34127e-14 0)
(6.67677 9.52198e-14 0)
(6.67677 9.06757e-14 0)
(6.67677 7.01788e-14 0)
(6.67677 4.68514e-14 0)
(6.67677 3.54861e-14 0)
(6.67677 7.86202e-14 0)
(6.67677 7.65499e-14 0)
(6.67677 5.5893e-14 0)
(6.67677 3.28323e-14 0)
(6.67677 -1.41891e-14 0)
(6.67677 -2.04169e-14 0)
(6.67677 4.0577e-14 0)
(6.67677 7.46796e-14 0)
(6.67677 8.15708e-14 0)
(6.67677 1.07088e-13 0)
(6.67677 1.12423e-13 0)
(6.67677 4.30374e-14 0)
(6.67677 5.93536e-14 0)
(6.67677 1.58187e-13 0)
(6.67677 1.91373e-13 0)
(6.67677 1.89296e-13 0)
(6.67677 1.9136e-13 0)
(6.67677 1.69165e-13 0)
(6.67677 -8.14141e-15 0)
(6.67677 -2.48043e-15 0)
(6.67677 -9.04823e-15 0)
(6.67677 -6.3911e-15 0)
(6.67677 -8.26476e-15 0)
(6.67677 -4.8225e-14 0)
(6.67677 -6.03604e-14 0)
(6.67677 -3.50094e-14 0)
(6.67677 -9.71168e-15 0)
(6.67677 4.66247e-14 0)
(6.67677 5.65664e-14 0)
(6.67677 4.64814e-14 0)
(6.67677 5.29358e-14 0)
(6.67677 7.51163e-14 0)
(6.67677 9.75502e-14 0)
(6.67677 9.68701e-14 0)
(6.67677 6.09039e-14 0)
(6.67677 1.7133e-14 0)
(6.67677 -2.31307e-14 0)
(6.67677 -1.09186e-14 0)
(6.67677 2.75381e-14 0)
(6.67677 8.93488e-15 0)
(6.67677 1.77564e-14 0)
(6.67677 4.66247e-14 0)
(6.67677 6.31509e-14 0)
(6.67677 5.85668e-14 0)
(6.67677 4.54045e-14 0)
(6.67677 6.5438e-14 0)
(6.67677 6.1634e-14 0)
(6.67677 5.04587e-14 0)
(6.67677 1.62528e-14 0)
(6.67677 9.85504e-15 0)
(6.67677 6.64248e-14 0)
(6.67677 7.36694e-14 0)
(6.67677 3.92468e-14 0)
(6.67677 2.04369e-15 0)
(6.67677 2.16271e-14 0)
(6.67677 7.60298e-14 0)
(6.67677 8.13641e-14 0)
(6.67677 5.13192e-14 0)
(6.67677 7.98471e-15 0)
(6.67677 1.24255e-14 0)
(6.67677 -1.14686e-15 0)
(6.67677 1.38891e-14 0)
(6.67677 4.87618e-14 0)
(6.67677 6.21141e-14 0)
(6.67677 4.55579e-14 0)
(6.67677 2.70313e-14 0)
(6.67677 -2.2904e-15 0)
(6.67677 -5.49295e-14 0)
(6.67677 -6.98654e-14 0)
(6.67677 -1.30859e-13 0)
(6.67677 -1.1694e-13 0)
(6.67677 1.38491e-14 0)
(6.67677 5.98303e-14 0)
(6.67677 1.45025e-14 0)
(6.67677 -2.27073e-14 0)
(6.67677 -1.43525e-14 0)
(6.67677 -3.13054e-15 0)
(6.67677 2.04835e-14 0)
(6.67677 2.10936e-14 0)
(6.67677 -5.5853e-14 0)
(6.67677 -7.06989e-14 0)
(6.67677 -4.52678e-14 0)
(6.67677 -6.21774e-15 0)
(6.67677 -2.74814e-14 0)
(6.67677 -5.68098e-14 0)
(6.67677 -6.61148e-14 0)
(6.67677 -8.51114e-14 0)
(6.67677 -1.41404e-13 0)
(6.67677 -1.57434e-13 0)
(6.67677 -1.1691e-13 0)
(6.67677 -9.89004e-14 0)
(6.67677 -5.29325e-14 0)
(6.67677 -4.73048e-14 0)
(6.67677 -6.46778e-16 0)
(6.67677 4.88384e-14 0)
(6.67677 9.95472e-14 0)
(6.67677 4.90185e-14 0)
(6.67677 -7.81589e-14 0)
(6.67677 6.81118e-15 0)
(6.67677 2.72714e-14 0)
(6.67677 3.52127e-14 0)
(6.67677 2.27206e-14 0)
(6.67677 2.85649e-14 0)
(6.67677 3.48594e-14 0)
(6.67677 6.12539e-14 0)
(6.67677 1.60628e-14 0)
(6.67677 -2.63112e-14 0)
(6.67677 -7.57864e-14 0)
(6.67677 -9.68134e-14 0)
(6.67677 -6.79151e-14 0)
(6.67677 2.72647e-14 0)
(6.67677 6.53446e-14 0)
(6.67677 9.83036e-14 0)
(6.67677 1.1419e-13 0)
(6.67677 1.03888e-13 0)
(6.67677 9.61066e-14 0)
(6.67677 1.22048e-13 0)
(6.67677 1.23148e-13 0)
(6.67677 6.29775e-14 0)
(6.67677 -6.5788e-14 0)
(6.67677 -9.18192e-14 0)
(6.67677 -9.14891e-14 0)
(6.67677 -1.01468e-13 0)
(6.67677 -9.31428e-14 0)
(6.67677 -9.01589e-14 0)
(6.67677 -9.2406e-14 0)
(6.67677 -8.96822e-14 0)
(6.67677 -7.54697e-14 0)
(6.67677 -5.52695e-14 0)
(6.67677 1.30356e-15 0)
(6.67677 6.10072e-14 0)
(6.67677 6.21207e-14 0)
(6.67677 7.06922e-14 0)
(6.67677 1.80798e-14 0)
(6.67677 1.17187e-14 0)
(6.67677 -9.12491e-15 0)
(6.67677 -4.82417e-14 0)
(6.67677 -1.14441e-13 0)
(6.67677 4.00736e-15 0)
(6.67677 -1.7603e-15 0)
(6.67677 2.66613e-14 0)
(6.67677 2.94184e-14 0)
(6.67677 7.73467e-16 0)
(6.67677 -1.38057e-14 0)
(6.67677 -8.92154e-15 0)
(6.67677 2.51343e-14 0)
(6.67677 5.44261e-14 0)
(6.67677 3.78065e-14 0)
(6.67677 2.10403e-14 0)
(6.67677 2.87283e-14 0)
(6.67677 4.68448e-14 0)
(6.67677 4.56345e-14 0)
(6.67677 4.58913e-14 0)
(6.67677 5.94969e-14 0)
(6.67677 1.12779e-13 0)
(6.67677 1.58991e-13 0)
(6.67677 1.62335e-13 0)
(6.67677 1.28059e-13 0)
(6.67677 4.8185e-14 0)
(6.67677 -3.79666e-14 0)
(6.67677 -4.43643e-14 0)
(6.67677 -4.76416e-14 0)
(6.67677 -5.50628e-14 0)
(6.67677 -4.77883e-14 0)
(6.67677 -3.10387e-15 0)
(6.67677 4.2704e-14 0)
(6.67677 3.53161e-14 0)
(6.67677 3.22922e-14 0)
(6.67677 3.02419e-14 0)
(6.67677 3.88e-14 0)
(6.67677 1.42461e-13 0)
(6.67677 1.78041e-13 0)
(6.67677 1.50986e-13 0)
(6.67677 1.03655e-13 0)
(6.67677 -3.93201e-14 0)
(6.67677 -8.28343e-14 0)
(6.67677 -4.31241e-14 0)
(6.67677 9.67232e-15 0)
(6.67677 -7.63799e-15 0)
(6.67677 -2.18771e-14 0)
(6.67677 -1.80398e-14 0)
(6.67677 1.11453e-14 0)
(6.67677 -5.66765e-15 0)
(6.67677 -4.50378e-14 0)
(6.67677 -7.17091e-14 0)
(6.67677 -9.05256e-14 0)
(6.67677 -5.42894e-14 0)
(6.67677 -4.72682e-14 0)
(6.67677 -4.20906e-14 0)
(6.67677 -2.4971e-14 0)
(6.67677 -3.96568e-14 0)
(6.67677 -8.00005e-14 0)
(6.67677 -8.28043e-14 0)
(6.67677 -4.50745e-14 0)
(6.67677 3.56061e-15 0)
(6.67677 1.31456e-14 0)
(6.67677 -4.31408e-15 0)
(6.67677 7.43462e-16 0)
(6.67677 -9.15491e-15 0)
(6.67677 4.26274e-14 0)
(6.67677 9.71434e-14 0)
(6.67677 1.21618e-13 0)
(6.67677 1.3506e-13 0)
(6.67677 1.04441e-13 0)
(6.67677 7.69433e-14 0)
(6.67677 5.33125e-14 0)
(6.67677 7.22325e-14 0)
(6.67677 7.08522e-14 0)
(6.67677 7.80035e-14 0)
(6.67677 7.07122e-14 0)
(6.67677 5.94869e-14 0)
(6.67677 2.85349e-14 0)
(6.67677 3.75065e-14 0)
(6.67677 3.18288e-14 0)
(6.67677 8.76818e-15 0)
(6.67677 -3.33391e-14 0)
(6.67677 1.33023e-14 0)
(6.67677 1.18259e-13 0)
(6.67677 -8.54814e-15 0)
(6.67677 -7.42128e-15 0)
(6.67677 -4.19406e-15 0)
(6.67677 6.95787e-15 0)
(6.67677 3.32191e-14 0)
(6.67677 5.01753e-14 0)
(6.67677 4.21439e-14 0)
(6.67677 3.14721e-15 0)
(6.67677 -2.95118e-14 0)
(6.67677 -1.77031e-15 0)
(6.67677 -2.49376e-15 0)
(6.67677 4.55745e-15 0)
(6.67677 1.03851e-14 0)
(6.67677 3.22122e-14 0)
(6.67677 2.30773e-14 0)
(6.67677 -6.44111e-15 0)
(6.67677 -4.26274e-14 0)
(6.67677 -7.71066e-14 0)
(6.67677 -7.38294e-14 0)
(6.67677 -7.96404e-14 0)
(6.67677 -4.26207e-14 0)
(6.67677 -3.76732e-16 0)
(6.67677 2.04002e-14 0)
(6.67677 9.22726e-14 0)
(6.67677 1.36574e-13 0)
(6.67677 1.68206e-13 0)
(6.67677 2.06946e-13 0)
(6.67677 2.30793e-13 0)
(6.67677 2.11407e-13 0)
(6.67677 1.58951e-13 0)
(6.67677 1.49189e-13 0)
(6.67677 1.27365e-13 0)
(6.67677 1.47525e-14 0)
(6.67677 -1.82898e-14 0)
(6.67677 -3.73031e-14 0)
(6.67677 -4.75649e-14 0)
(6.67677 -8.4648e-15 0)
(6.67677 2.13037e-14 0)
(6.67677 6.74316e-14 0)
(6.67677 9.34201e-14 0)
(6.67677 2.22372e-15 0)
(6.67677 8.00138e-15 0)
(6.67677 -7.87136e-15 0)
(6.67677 -1.60461e-14 0)
(6.67677 2.85449e-14 0)
(6.67677 7.38027e-14 0)
(6.67677 7.77501e-14 0)
(6.67677 9.15858e-14 0)
(6.67677 8.34111e-14 0)
(6.67677 9.18525e-14 0)
(6.67677 9.633e-14 0)
(6.67677 9.17292e-14 0)
(6.67677 5.54196e-14 0)
(6.67677 9.21826e-15 0)
(6.67677 -1.35623e-14 0)
(6.67677 -3.87234e-14 0)
(6.67677 -1.21221e-14 0)
(6.67677 1.25855e-14 0)
(6.67677 2.66946e-14 0)
(6.67677 2.83182e-14 0)
(6.67677 2.9155e-14 0)
(6.67677 -2.12003e-14 0)
(6.67677 -5.63864e-14 0)
(6.67677 -6.51079e-14 0)
(6.67677 -3.57062e-14 0)
(6.67677 -1.91033e-14 0)
(6.67677 7.00521e-14 0)
(6.67677 2.00598e-13 0)
(6.67677 2.13647e-13 0)
(6.67677 2.42155e-13 0)
(6.67677 2.05856e-13 0)
(6.67677 1.19511e-13 0)
(6.67677 6.43278e-14 0)
(6.67677 4.84017e-14 0)
(6.67677 3.21722e-14 0)
(6.67677 3.38825e-14 0)
(6.67677 6.06338e-14 0)
(6.67677 1.04471e-13 0)
(6.67677 2.60778e-14 0)
(6.67677 2.40633e-14 0)
(6.67677 -6.49112e-15 0)
(6.67677 -6.5378e-15 0)
(6.67677 -2.13737e-14 0)
(6.67677 -3.55161e-14 0)
(6.67677 -6.52379e-14 0)
(6.67677 -8.45313e-14 0)
(6.67677 -8.08606e-14 0)
(6.67677 -2.84316e-14 0)
(6.67677 -1.42491e-14 0)
(6.67677 -2.1307e-14 0)
(6.67677 1.43958e-14 0)
(6.67677 5.76766e-16 0)
(6.67677 -6.55113e-14 0)
(6.67677 -1.22384e-13 0)
(6.67677 -1.17587e-13 0)
(6.67677 -1.07048e-13 0)
(6.67677 -6.48512e-14 0)
(6.67677 -1.23655e-14 0)
(6.67677 8.73484e-16 0)
(6.67677 2.59545e-14 0)
(6.67677 2.43342e-14 0)
(6.67677 1.39891e-14 0)
(6.67677 -3.32891e-14 0)
(6.67677 -5.67931e-14 0)
(6.67677 -3.37492e-14 0)
(6.67677 -3.40392e-14 0)
(6.67677 -5.55396e-14 0)
(6.67677 -5.792e-14 0)
(6.67677 -4.98619e-14 0)
(6.67677 -3.91101e-14 0)
(6.67677 3.21689e-14 0)
(6.67677 5.64864e-14 0)
(6.67677 4.22573e-14 0)
(6.67677 2.68613e-14 0)
(6.67677 7.40995e-14 0)
(6.67677 1.42501e-13 0)
(6.67677 1.42588e-13 0)
(6.67677 1.17364e-13 0)
(6.67677 4.38042e-14 0)
(6.67677 -2.98304e-14 0)
(6.67677 -4.36742e-16 0)
(6.67677 -1.02084e-14 0)
(6.67677 -4.16072e-15 0)
(6.67677 4.67414e-15 0)
(6.67677 -3.61529e-14 0)
(6.67677 -5.80367e-14 0)
(6.67677 -4.61446e-14 0)
(6.67677 -1.5646e-14 0)
(6.67677 -1.99168e-14 0)
(6.67677 -6.04171e-14 0)
(6.67677 -7.76267e-14 0)
(6.67677 -7.51596e-14 0)
(6.67677 -6.21774e-14 0)
(6.67677 -5.45861e-14 0)
(6.67677 -5.4006e-14 0)
(6.67677 -7.48896e-14 0)
(6.67677 -1.35837e-13 0)
(6.67677 -1.33283e-13 0)
(6.67677 -1.24985e-13 0)
(6.67677 -8.6735e-14 0)
(6.67677 -4.06504e-14 0)
(6.67677 -2.25272e-14 0)
(6.67677 4.88118e-14 0)
(6.67677 7.65032e-14 0)
(6.67677 7.77368e-14 0)
(6.67677 -1.17654e-14 0)
(6.67677 -1.41371e-13 0)
(6.67677 -1.55307e-13 0)
(6.67677 -1.69509e-13 0)
(6.67677 -1.65895e-13 0)
(6.67677 -1.38537e-13 0)
(6.67677 -1.37097e-13 0)
(6.67677 -1.78671e-13 0)
(6.67677 -1.1707e-13 0)
(6.67677 -3.29757e-14 0)
(6.67677 1.58727e-14 0)
(6.67677 2.48643e-14 0)
(6.67677 -1.87799e-14 0)
(6.67677 -4.01903e-14 0)
(6.67677 -4.88785e-15 0)
(6.67677 6.94787e-15 0)
(6.67677 5.41093e-15 0)
(6.67677 2.63379e-15 0)
(6.67677 1.06218e-14 0)
(6.67677 2.23239e-14 0)
(6.67677 2.20705e-15 0)
(6.67677 -1.10486e-14 0)
(6.67677 -7.23458e-16 0)
(6.67677 2.09203e-14 0)
(6.67677 4.21606e-14 0)
(6.67677 1.40091e-14 0)
(6.67677 1.74697e-15 0)
(6.67677 -1.90766e-14 0)
(6.67677 4.42743e-15 0)
(6.67677 1.29922e-14 0)
(6.67677 5.93102e-15 0)
(6.67677 6.06771e-15 0)
(6.67677 -4.26107e-14 0)
(6.67677 -6.7485e-14 0)
(6.67677 -6.90519e-14 0)
(6.67677 -1.12129e-13 0)
(6.67677 -4.55412e-15 0)
(6.67677 6.1504e-14 0)
(6.67677 5.52629e-14 0)
(6.67677 4.09737e-15 0)
(6.67677 -2.85916e-14 0)
(6.67677 -4.92885e-14 0)
(6.67677 -9.49897e-14 0)
(6.67677 -1.12653e-13 0)
(6.67677 -6.5608e-14 0)
(6.67677 -5.34859e-14 0)
(6.67677 -7.98238e-14 0)
(6.67677 -1.94924e-13 0)
(6.67677 -2.12037e-13 0)
(6.67677 -1.91473e-13 0)
(6.67677 -1.09272e-13 0)
(6.67677 -9.05356e-14 0)
(6.67677 -1.27059e-13 0)
(6.67677 -1.01718e-13 0)
(6.67677 -9.16401e-14 0)
(6.67677 3.33391e-17 0)
(6.67677 1.18687e-15 0)
(6.67677 -5.2309e-15 0)
(6.67677 -1.01718e-14 0)
(6.67677 7.09122e-15 0)
(6.67677 3.48193e-14 0)
(6.67677 1.31456e-14 0)
(6.67677 -9.8317e-15 0)
(6.67677 1.86832e-14 0)
(6.67677 6.22041e-14 0)
(6.67677 7.77034e-14 0)
(6.67677 1.34056e-14 0)
(6.67677 -3.57895e-14 0)
(6.67677 -5.09588e-14 0)
(6.67677 -5.74433e-14 0)
(6.67677 -4.90485e-14 0)
(6.67677 -2.68713e-14 0)
(6.67677 -3.32391e-14 0)
(6.67677 -2.41208e-14 0)
(6.67677 -2.88617e-14 0)
(6.67677 -3.97035e-14 0)
(6.67677 -9.38795e-14 0)
(6.67677 -1.7117e-13 0)
(6.67677 -1.67286e-13 0)
(6.67677 -1.3692e-13 0)
(6.67677 -9.29694e-14 0)
(6.67677 -6.7445e-14 0)
(6.67677 -6.88186e-14 0)
(6.67677 1.99034e-15 0)
(6.67677 9.22693e-14 0)
(6.67677 4.68914e-14 0)
(6.67677 -3.78965e-14 0)
(6.67677 -6.49112e-14 0)
(6.67677 -1.52593e-14 0)
(6.67677 4.61013e-14 0)
(6.67677 5.41327e-14 0)
(6.67677 6.66015e-14 0)
(6.67677 7.13757e-14 0)
(6.67677 4.94185e-14 0)
(6.67677 -1.22887e-14 0)
(6.67677 -4.33742e-15 0)
(6.67677 1.24688e-15 0)
(6.67677 -1.1782e-14 0)
(6.67677 -1.76831e-14 0)
(6.67677 6.73116e-15 0)
(6.67677 6.68249e-14 0)
(6.67677 9.85203e-14 0)
(6.67677 6.55413e-14 0)
(6.67677 -1.947e-15 0)
(6.67677 -1.7113e-14 0)
(6.67677 -3.11354e-14 0)
(6.67677 -3.86167e-14 0)
(6.67677 9.29827e-15 0)
(6.67677 3.25623e-14 0)
(6.67677 3.13154e-14 0)
(6.67677 5.18423e-15 0)
(6.67677 -3.39625e-14 0)
(6.67677 -3.81733e-14 0)
(6.67677 -4.43643e-14 0)
(6.67677 -3.832e-14 0)
(6.67677 -1.33556e-14 0)
(6.67677 -3.57795e-14 0)
(6.67677 -9.66434e-14 0)
(6.67677 -1.35407e-13 0)
(6.67677 -1.5521e-13 0)
(6.67677 -2.06866e-13 0)
(6.67677 -1.38987e-13 0)
(6.67677 -9.45663e-14 0)
(6.67677 -6.70716e-14 0)
(6.67677 -8.24709e-14 0)
(6.67677 -7.3546e-14 0)
(6.67677 -1.927e-15 0)
(6.67677 6.3511e-14 0)
(6.67677 6.55913e-14 0)
(6.67677 7.52963e-14 0)
(6.67677 8.21909e-14 0)
(6.67677 1.00331e-13 0)
(6.67677 6.14673e-14 0)
(6.67677 -2.25906e-14 0)
(6.67677 -4.12925e-14 0)
(6.67677 7.39461e-15 0)
(6.67677 2.8675e-14 0)
(6.67677 4.78549e-14 0)
(6.67677 4.4461e-14 0)
(6.67677 3.60996e-14 0)
(6.67677 3.69997e-14 0)
(6.67677 7.07389e-14 0)
(6.67677 7.1639e-14 0)
(6.67677 5.26824e-14 0)
(6.67677 1.86032e-15 0)
(6.67677 -4.82683e-14 0)
(6.67677 -3.88534e-14 0)
(6.67677 7.21758e-14 0)
(6.67677 1.13516e-13 0)
(6.67677 1.41201e-13 0)
(6.67677 1.03068e-13 0)
(6.67677 5.26191e-14 0)
(6.67677 5.33692e-14 0)
(6.67677 5.23824e-14 0)
(6.67677 1.98001e-14 0)
(6.67677 -3.92868e-14 0)
(6.67677 -4.96286e-14 0)
(6.67677 4.78516e-14 0)
(6.67677 -2.06136e-14 0)
(6.67677 -2.35514e-13 0)
(6.67677 -2.61769e-13 0)
(6.67677 -2.33944e-13 0)
(6.67677 -6.97487e-14 0)
(6.67677 -1.64662e-14 0)
(6.67677 -2.5271e-14 0)
(6.67677 -1.42325e-14 0)
(6.67677 1.5326e-14 0)
(6.67677 1.35523e-14 0)
(6.67677 3.6923e-14 0)
(6.67677 6.35943e-14 0)
(6.67677 1.07859e-13 0)
(6.67677 1.32023e-13 0)
(6.67677 2.04412e-13 0)
(6.67677 1.31023e-14 0)
(6.67677 1.32485e-13 0)
(6.67677 5.2209e-15 0)
(6.67677 4.68748e-15 0)
(6.67677 2.13537e-14 0)
(6.67677 2.33774e-14 0)
(6.67677 8.09807e-15 0)
(6.67677 4.86084e-15 0)
(6.67677 9.48831e-15 0)
(6.67677 5.84301e-14 0)
(6.67677 5.766e-14 0)
(6.67677 4.86751e-15 0)
(6.67677 -3.60629e-14 0)
(6.67677 -2.18538e-14 0)
(6.67677 -2.49176e-14 0)
(6.67677 -3.17155e-14 0)
(6.67677 -5.1999e-14 0)
(6.67677 3.89401e-15 0)
(6.67677 2.24405e-14 0)
(6.67677 1.3269e-15 0)
(6.67677 9.99173e-15 0)
(6.67677 -2.53377e-15 0)
(6.67677 1.96034e-14 0)
(6.67677 6.49112e-15 0)
(6.67677 -5.13422e-16 0)
(6.67677 -1.06118e-14 0)
(6.67677 -3.26056e-14 0)
(6.67677 -9.02222e-14 0)
(6.67677 -9.56465e-14 0)
(6.67677 -1.25235e-13 0)
(6.67677 -1.48199e-13 0)
(6.67677 -1.7328e-13 0)
(6.67677 -8.03272e-14 0)
(6.67677 -2.94217e-14 0)
(6.67677 -1.36023e-14 0)
(6.67677 3.24056e-15 0)
(6.67677 1.40458e-14 0)
(6.67677 3.95035e-14 0)
(6.67677 4.4531e-14 0)
(6.67677 1.45955e-13 0)
(6.67677 1.48776e-13 0)
(6.67677 1.64132e-13 0)
(6.67677 -1.39024e-14 0)
(6.67677 -3.87934e-14 0)
(6.67677 -4.31508e-14 0)
(6.67677 -4.49544e-14 0)
(6.67677 -2.54811e-14 0)
(6.67677 -7.07122e-15 0)
(6.67677 1.11053e-14 0)
(6.67677 -2.56244e-14 0)
(6.67677 -4.09837e-14 0)
(6.67677 -3.26956e-14 0)
(6.67677 -5.15422e-15 0)
(6.67677 -1.77731e-14 0)
(6.67677 -5.84834e-14 0)
(6.67677 -8.67383e-14 0)
(6.67677 -8.36211e-14 0)
(6.67677 -6.16773e-16 0)
(6.67677 1.1592e-14 0)
(6.67677 -4.27074e-15 0)
(6.67677 -4.45344e-14 0)
(6.67677 -3.80232e-14 0)
(6.67677 -2.22805e-14 0)
(6.67677 4.20073e-14 0)
(6.67677 5.33892e-14 0)
(6.67677 7.09956e-14 0)
(6.67677 1.20274e-13 0)
(6.67677 1.27379e-13 0)
(6.67677 3.05953e-14 0)
(6.67677 -1.15487e-14 0)
(6.67677 1.09686e-14 0)
(6.67677 5.89802e-14 0)
(6.67677 4.86484e-14 0)
(6.67677 7.07089e-14 0)
(6.67677 1.23975e-13 0)
(6.67677 8.33677e-14 0)
(6.67677 -7.56531e-14 0)
(6.67677 -1.24968e-13 0)
(6.67677 -6.86052e-14 0)
(6.67677 -1.83465e-14 0)
(6.67677 4.25173e-14 0)
(6.67677 1.1346e-13 0)
(6.67677 -4.30074e-16 0)
(6.67677 -7.42795e-15 0)
(6.67677 -2.1507e-14 0)
(6.67677 -2.59611e-14 0)
(6.67677 -2.03268e-14 0)
(6.67677 -2.11837e-14 0)
(6.67677 -8.59748e-14 0)
(6.67677 -1.22935e-13 0)
(6.67677 -1.42958e-13 0)
(6.67677 -7.42628e-14 0)
(6.67677 -3.98302e-14 0)
(6.67677 -1.77297e-14 0)
(6.67677 1.46325e-14 0)
(6.67677 -8.7015e-16 0)
(6.67677 -9.31161e-15 0)
(6.67677 -1.96734e-14 0)
(6.67677 -1.34457e-14 0)
(6.67677 7.1379e-15 0)
(6.67677 3.92068e-15 0)
(6.67677 6.46112e-15 0)
(6.67677 -2.10336e-14 0)
(6.67677 -1.96567e-14 0)
(6.67677 3.28957e-14 0)
(6.67677 1.375e-13 0)
(6.67677 1.62281e-13 0)
(6.67677 1.62841e-13 0)
(6.67677 2.11737e-13 0)
(6.67677 2.04789e-13 0)
(6.67677 9.15891e-14 0)
(6.67677 2.60112e-14 0)
(6.67677 1.60861e-14 0)
(6.67677 3.90534e-14 0)
(6.67677 1.19647e-13 0)
(6.67677 6.29209e-14 0)
(6.67677 2.85949e-14 0)
(6.67677 1.63028e-14 0)
(6.67677 9.01489e-15 0)
(6.67677 1.3379e-14 0)
(6.67677 6.9512e-15 0)
(6.67677 -1.53157e-14 0)
(6.67677 1.25222e-14 0)
(6.67677 1.50559e-14 0)
(6.67677 1.04118e-14 0)
(6.67677 1.5686e-14 0)
(6.67677 -8.12474e-15 0)
(6.67677 -5.10988e-14 0)
(6.67677 -7.26659e-14 0)
(6.67677 -6.68149e-14 0)
(6.67677 -1.5526e-14 0)
(6.67677 2.82182e-14 0)
(6.67677 1.92867e-14 0)
(6.67677 2.88383e-14 0)
(6.67677 2.27539e-14 0)
(6.67677 2.39175e-14 0)
(6.67677 4.18006e-14 0)
(6.67677 7.25959e-14 0)
(6.67677 7.55964e-14 0)
(6.67677 8.53947e-14 0)
(6.67677 6.28275e-14 0)
(6.67677 7.81535e-14 0)
(6.67677 8.61149e-14 0)
(6.67677 6.01037e-14 0)
(6.67677 8.60082e-14 0)
(6.67677 4.45244e-14 0)
(6.67677 6.5908e-14 0)
(6.67677 1.1761e-13 0)
(6.67677 1.68446e-13 0)
(6.67677 1.54227e-13 0)
(6.67677 -2.45376e-15 0)
(6.67677 -1.58384e-13 0)
(6.67677 -1.49859e-13 0)
(6.67677 -1.30609e-13 0)
(6.67677 -1.53857e-13 0)
(6.67677 -6.63415e-14 0)
(6.67677 3.73298e-14 0)
(6.67677 4.18106e-14 0)
(6.67677 2.22572e-14 0)
(6.67677 6.12106e-15 0)
(6.67677 -3.20255e-14 0)
(6.67677 -7.72036e-14 0)
(6.67677 -2.53377e-15 0)
(6.67677 -9.33495e-16 0)
(6.67677 2.00835e-14 0)
(6.67677 4.72615e-14 0)
(6.67677 5.39093e-14 0)
(6.67677 3.96735e-14 0)
(6.67677 2.1217e-14 0)
(6.67677 1.94e-14 0)
(6.67677 3.43826e-14 0)
(6.67677 1.01904e-13 0)
(6.67677 1.20464e-13 0)
(6.67677 1.04578e-13 0)
(6.67677 2.98585e-14 0)
(6.67677 1.07852e-14 0)
(6.67677 1.14653e-14 0)
(6.67677 5.809e-14 0)
(6.67677 7.3326e-14 0)
(6.67677 8.58882e-14 0)
(6.67677 8.00705e-14 0)
(6.67677 8.98455e-14 0)
(6.67677 1.00427e-13 0)
(6.67677 5.74466e-14 0)
(6.67677 4.68748e-14 0)
(6.67677 3.81499e-14 0)
(6.67677 7.1279e-15 0)
(6.67677 -3.49627e-14 0)
(6.67677 -3.03352e-14 0)
(6.67677 -4.02169e-14 0)
(6.67677 -5.89535e-14 0)
(6.67677 -7.94471e-15 0)
(6.67677 3.30357e-14 0)
(6.67677 -1.19221e-14 0)
(6.67677 -3.01919e-14 0)
(6.67677 7.96804e-16 0)
(6.67677 8.27976e-14 0)
(6.67677 7.92137e-14 0)
(6.67677 6.3611e-14 0)
(6.67677 2.13404e-14 0)
(6.67677 -5.64764e-15 0)
(6.67677 -1.705e-14 0)
(6.67677 2.23372e-16 0)
(6.67677 1.49526e-14 0)
(6.67677 3.61462e-14 0)
(6.67677 4.80383e-14 0)
(6.67677 3.20955e-14 0)
(6.67677 1.74663e-14 0)
(6.67677 5.41093e-15 0)
(6.67677 -1.91866e-14 0)
(6.67677 -2.45842e-14 0)
(6.67677 -2.13237e-14 0)
(6.67677 -7.42462e-15 0)
(6.67677 -2.09736e-14 0)
(6.67677 -2.7038e-14 0)
(6.67677 -7.25759e-14 0)
(6.67677 -8.99222e-14 0)
(6.67677 -3.55561e-14 0)
(6.67677 7.3496e-14 0)
(6.67677 6.63715e-14 0)
(6.67677 1.01894e-13 0)
(6.67677 1.60961e-13 0)
(6.67677 1.72146e-13 0)
(6.67677 1.7283e-13 0)
(6.67677 1.31929e-13 0)
(6.67677 9.35962e-14 0)
(6.67677 7.87203e-14 0)
(6.67677 3.42859e-14 0)
(6.67677 -1.14026e-13 0)
(6.67677 -1.86559e-13 0)
(6.67677 -1.00697e-13 0)
(6.67677 8.78285e-14 0)
(6.67677 1.65662e-13 0)
(6.67677 1.57197e-13 0)
(6.67677 2.5161e-14 0)
(6.67677 9.05156e-15 0)
(6.67677 1.88933e-14 0)
(6.67677 2.35641e-14 0)
(6.67677 1.93567e-14 0)
(6.67677 3.29724e-14 0)
(6.67677 -9.56165e-15 0)
(6.67677 -9.05416e-14 0)
(6.67677 -2.45376e-15 0)
(6.67677 4.84417e-15 0)
(6.67677 -5.3776e-15 0)
(6.67677 -3.92434e-14 0)
(6.67677 -9.52665e-14 0)
(6.67677 -1.06218e-13 0)
(6.67677 -6.47245e-14 0)
(6.67677 -4.66114e-14 0)
(6.67677 -6.59681e-14 0)
(6.67677 -1.43825e-13 0)
(6.67677 -2.00281e-13 0)
(6.67677 -1.74207e-13 0)
(6.67677 -1.37897e-13 0)
(6.67677 -7.97404e-14 0)
(6.67677 -1.40524e-14 0)
(6.67677 5.74099e-15 0)
(6.67677 6.20107e-14 0)
(6.67677 7.26492e-14 0)
(6.67677 1.18584e-13 0)
(6.67677 4.50044e-14 0)
(6.67677 3.40392e-14 0)
(6.67677 3.85066e-14 0)
(6.67677 -1.16587e-14 0)
(6.67677 -5.13955e-14 0)
(6.67677 -6.26708e-14 0)
(6.67677 -5.35793e-14 0)
(6.67677 -1.10922e-13 0)
(6.67677 -1.59754e-13 0)
(6.67677 -1.77391e-13 0)
(6.67677 -9.62266e-14 0)
(6.67677 -7.57131e-15 0)
(6.67677 2.33674e-14 0)
(6.67677 -7.54797e-15 0)
(6.67677 -1.1847e-13 0)
(6.67677 -1.45055e-13 0)
(6.67677 -1.48049e-13 0)
(6.67677 -1.47756e-13 0)
(6.67677 -1.31809e-13 0)
(6.67677 -1.07792e-13 0)
(6.67677 -1.27568e-13 0)
(6.67677 -6.00104e-15 0)
(6.67677 -1.11653e-14 0)
(6.67677 -2.71314e-14 0)
(6.67677 -3.38125e-14 0)
(6.67677 -1.25388e-14 0)
(6.67677 -1.03351e-14 0)
(6.67677 -2.74381e-14 0)
(6.67677 -2.29673e-14 0)
(6.67677 -3.38859e-14 0)
(6.67677 -6.50812e-14 0)
(6.67677 -2.54711e-15 0)
(6.67677 6.08972e-14 0)
(6.67677 1.05225e-13 0)
(6.67677 1.09322e-13 0)
(6.67677 1.22381e-13 0)
(6.67677 8.02172e-14 0)
(6.67677 -2.90317e-14 0)
(6.67677 4.12738e-14 0)
(6.67677 1.12119e-13 0)
(6.67677 -8.79152e-15 0)
(6.67677 -4.0307e-14 0)
(6.67677 -5.84934e-14 0)
(6.67677 -9.94172e-14 0)
(6.67677 -1.08852e-13 0)
(6.67677 -1.24405e-13 0)
(6.67677 -1.3354e-13 0)
(6.67677 -1.34487e-13 0)
(6.67677 -9.0669e-14 0)
(6.67677 -8.18675e-14 0)
(6.67677 -1.41384e-13 0)
(6.67677 -1.7128e-13 0)
(6.67677 -1.72213e-13 0)
(6.67677 -1.41394e-13 0)
(6.67677 -1.88599e-13 0)
(6.67677 -2.20871e-13 0)
(6.67677 -1.98794e-13 0)
(6.67677 -1.32176e-13 0)
(6.67677 -1.02774e-13 0)
(6.67677 -8.67983e-14 0)
(6.67677 2.61586e-15 0)
(6.67677 1.56694e-16 0)
(6.67677 -1.10086e-14 0)
(6.67677 -5.96103e-15 0)
(6.67677 1.89666e-14 0)
(6.67677 6.17873e-14 0)
(6.67677 8.01805e-14 0)
(6.67677 7.75601e-14 0)
(6.67677 3.48293e-14 0)
(6.67677 2.36641e-14 0)
(6.67677 7.39628e-14 0)
(6.67677 1.70396e-13 0)
(6.67677 1.88383e-13 0)
(6.67677 2.07799e-13 0)
(6.67677 1.49279e-13 0)
(6.67677 9.42663e-14 0)
(6.67677 1.03685e-15 0)
(6.67677 -7.24092e-14 0)
(6.67677 -6.9202e-14 0)
(6.67677 -7.29226e-14 0)
(6.67677 -6.79751e-14 0)
(6.67677 -5.77933e-14 0)
(6.67677 -5.69998e-14 0)
(6.67677 -6.94687e-14 0)
(6.67677 -1.63748e-13 0)
(6.67677 -2.58101e-13 0)
(6.67677 -2.34637e-13 0)
(6.67677 -1.89139e-13 0)
(6.67677 -1.68012e-13 0)
(6.67677 -1.42801e-13 0)
(6.67677 -1.3602e-13 0)
(6.67677 -1.86622e-13 0)
(6.67677 -2.53354e-13 0)
(6.67677 -2.86873e-13 0)