/*--------------------------------*- C++ -*----------------------------------*\
| =========                 |                                                 |
| \\      /  F ield         | OpenFOAM: The Open Source CFD Toolbox           |
|  \\    /   O peration     | Version:  2206                                  |
|   \\  /    A nd           | Website:  www.openfoam.com                      |
|    \\/     M anipulation  |                                                 |
\*---------------------------------------------------------------------------*/
FoamFile
{
    version     2.0;
    format      ascii;
    arch        "LSB;label=32;scalar=64";
    class       volVectorField;
    location    "0.02";
    object      U;
}
// * * * * * * * * * * * * * * * * * * * * * * * * * * * * * * * * * * * * * //

dimensions      [0 1 -1 0 0 0 0];

internalField   nonuniform List<vector> 
75
(
(3.44444 -5.39051e-15 0)
(3.44444 -4.80583e-15 0)
(3.44444 2.878e-15 0)
(3.44444 3.04094e-15 0)
(3.44444 1.8149e-15 0)
(3.44444 -4.91752e-16 0)
(3.44444 -6.62906e-15 0)
(3.44444 -4.95085e-15 0)
(3.44444 -2.49001e-15 0)
(3.44444 -1.30399e-16 0)
(3.44444 -5.41343e-15 0)
(3.44444 -4.01278e-15 0)
(3.44444 -6.82618e-15 0)
(3.44444 -4.67872e-15 0)
(3.44444 4.42376e-15 0)
(3.44444 -4.8946e-15 0)
(3.44444 4.6258e-17 0)
(3.44444 6.44403e-15 0)
(3.44444 9.93505e-15 0)
(3.44444 1.30404e-14 0)
(3.44444 4.89585e-15 0)
(3.44444 3.62396e-15 0)
(3.44444 6.89702e-15 0)
(3.44444 1.20758e-14 0)
(3.44444 8.36394e-15 0)
(3.39305 0.0170453 0)
(3.35917 0.0673127 0)
(3.37698 0.107065 0)
(3.39836 0.130321 0)
(3.4048 0.146879 0)
(3.40184 0.162192 0)
(3.39419 0.179235 0)
(3.38506 0.199783 0)
(3.37605 0.225503 0)
(3.37151 0.263648 0)
(3.44132 0.00477658 0)
(3.43207 0.0263475 0)
(3.4278 0.0536314 0)
(3.42777 0.0721075 0)
(3.42616 0.0863549 0)
(3.42295 0.101815 0)
(3.41815 0.120937 0)
(3.41226 0.147346 0)
(3.40468 0.176469 0)
(3.39345 0.246186 0)
(3.44444 -1.16947e-05 0)
(3.4444 7.83062e-05 0)
(3.44438 0.000291713 0)
(3.44438 0.000474763 0)
(3.44434 0.000652752 0)
(3.44435 0.000939608 0)
(3.4442 0.00123653 0)
(3.44427 0.00227318 0)
(3.44391 0.00243005 0)
(3.44389 0.00675302 0)
(3.44444 -5.15914e-07 0)
(3.44444 -1.16713e-07 0)
(3.44444 1.10839e-07 0)
(3.44444 2.38624e-07 0)
(3.44444 3.28757e-07 0)
(3.44444 8.53605e-07 0)
(3.44444 6.2352e-07 0)
(3.44444 4.09328e-06 0)
(3.44444 -3.52822e-07 0)
(3.44444 2.73906e-05 0)
(3.44444 -7.03182e-10 0)
(3.44444 -4.34154e-09 0)
(3.44444 -5.03396e-10 0)
(3.44444 5.15183e-12 0)
(3.44444 7.77184e-12 0)
(3.44444 4.30994e-11 0)
(3.44444 3.9844e-12 0)
(3.44444 3.42546e-10 0)
(3.44444 -1.20743e-08 0)
(3.44444 6.47583e-09 0)
)
;

boundaryField
{
    inlet
    {
        type            fixedValue;
        value           uniform (3.44444 0 0);
    }
    outlet
    {
        type            zeroGradient;
    }
    bottom
    {
        type            symmetryPlane;
    }
    top
    {
        type            symmetryPlane;
    }
    obstacle
    {
        type            slip;
    }
    defaultFaces
    {
        type            empty;
    }
}


// ************************************************************************* //
