/*--------------------------------*- C++ -*----------------------------------*\
| =========                 |                                                 |
| \\      /  F ield         | OpenFOAM: The Open Source CFD Toolbox           |
|  \\    /   O peration     | Version:  2206                                  |
|   \\  /    A nd           | Website:  www.openfoam.com                      |
|    \\/     M anipulation  |                                                 |
\*---------------------------------------------------------------------------*/
FoamFile
{
    version     2.0;
    format      ascii;
    arch        "LSB;label=32;scalar=64";
    class       volScalarField;
    location    "0.2";
    object      T;
}
// * * * * * * * * * * * * * * * * * * * * * * * * * * * * * * * * * * * * * //

dimensions      [0 0 0 1 0 0 0];

internalField   nonuniform List<scalar> 
4800
(
1
1
1
1
1
1
1
1
1
1
1
1
1
1
1
1
1
1
1
1
1
1
1
1
1
1
1
1
1
1
1
1
1
1
1
1
1
1
1
1
1
1
1
1
1
1
1
1
1
1
1
1
1
1
1
1
1
1
1
1
1
1
1
1
1
1
1
1
1
1
1
1
1
1
1
1
1
1
1
1
1
1
1
1
1
1
1
1
1
1
1
1
1
1
1
1
1
1
1
1
1
1
1
1
1
1
1
1
1
1
1
1
1
1
1
1
1
1
1
1
1
1
1
1
1
1
1
1
1
1
1
1
1
1
1
1
1
1
1
1
1
1
1
1
1
1
1
1
1
1
1
1
1
1
1
1
1
1
1
1
1
1
1
1
1
1
1
1
1
1
1
1
1
1
1
1
1
1
1
1
1
1
1
1
1
1
1
1
1
1
1
1
1
1
1
1
1
1
1
1
1
1
1
1
1
1
1
1
1
1
1
1
1
1
1
1
1
1
1
1
1
1
1
1
1
1
1
1
1
1
1
1
1
1
1
1
1
1
1
1
1
1
1
1
1
1
1
1
1
1
1
1
1
1
1
1
1
1
1
1
1
1
1
1
1
1
1
1
1
1
1
1
1
1
1
1
1
1
1
1
1
1
1
1
1
1
1
1
1
1
1
1
1
1
1
1
1
1
1
1
1
1
1
1
1
1
1
1
1
1
1
1
1
1
1
1
1
1
1
1
1
1
1
1
1
1
1
1
1
1
1
1
1
1
1
1
1
1
1
1
1
1
1
1
1
1
1
1
1
1
1
1
1
1
1
1
1
1
1
1
1
1
1
1
1
1
1
1
1
1
1
1
1
1
1
1
1
1
1
1
1
1
1
1
1
1
1
1
1
1
1
1
1
1
1
1
1
1
1
1
1
1
1
1
1
1
1
1
1
1
1
1
1
1
1
1
1
1
1
1
1
1
1
1
1
1
1
1
1
1
1
1
1
1
1
1
1
1
1
1
1
1
1
1
1
1
1
1
1
1
1
1
1
1
1
1
1
1
1
1
1
1
1
1
1
1
1
1
1
1
1
1
1
1
1
1
1
1
1
1
1
1
1
1
1
1
1
1
1
1
1
1
1
1
1
1
1
1
1
1
1
1
1
1
1
1
1
1
1
1
1
1
1
1
1
1
1
1
1
1
1
1
1
1
1
1
1
1
1
1
1
1
1
1
1
1
1
1
1
1
1
1
1
1
1
1
1
1
1
1
1
1
1
1
1
1
1
1
1
1
1
1
1
1
1
1
1
1
1
1
1
1
1
1
1
1
1
1
1
1
1
1
1
1
1
1
1
1
1
1
1
1
1
1
1
1
1
1
1
1
1
1
1
1
1
1
1
1
1
1
1
1
1
1
1
1
1
1
1
1
1
1
1
1
1
1
1
1
1
1
1
1
1
1
1
1
1
1
1
1
1
1
1
1
1
1
1
1
1
1
1
1
1
1
1
1
1
1
1
1
1
1
1
1
1
1
1
1
1
1
1
1
1
1
1
1
1
1
1
1
1
1
1
1
1
1
1
1
1
1
1
1
1
1
1
1
1
1
1
1
1
1
1
1
1
1
1
1
1
1
1
1
1
1
1
1
1
1
1
1
1
1
1
1
1
1
1
1
1
1
1
1
1
1
1
1
1
1
1
1
1
1
1
1
1
1
1
1
1
1
1
1
1
1
1
1
1
1
1
1
1
1
1
1
1
1
1
1
1
1
1
1
1
1
1
1
1
1
1
1
1
1
1
1
1
1
1
1
1
1
1
1
1
1
1
1
1
1
1
1
1
1
1
1
1
1
1
1
1
1
1
1
1
1
1
1
1
1
1
1
1
1
1
1
1
1
1
1
1
1
1
1
1
1
1
1
1
1
1
1
1
1
1
1
1
1
1
1
1
1
1
1
1
1
1
1
1
1
1
1
1
1
1
1
1
1
1
1
1
1
1
1
1
1
1
1
1
1
1
1
1
1
1
1
1
1
1
1
1
1
1
1
1
1
1
1
1
1
1
1
1
1
1
1
1
1
1
1
1
1
1
1
1
1
1
1
1
1
1
1
1
1
1
1
1
1
1
1
1
1
1
1
1
1
1
1
1
1
1
1
1
1
1
1
1
1
1
1
1
1
1
1
1
1
1
1
1
1
1
1
1
1
1
1
1
1
1
1
1
1
1
1
1
1
1
1
1
1
1
1
1
1
1
1
1
1
1
1
1
1
1
1
1
1
1
1
1
1
1
1
1
1
1
1
1
1
1
1
1
1
1
1
1
1
1
1
1
1
1
1
1
1
1
1
1
1
1
1
1
1
1
1
1
1
1
1
1
1
1
1
1
1
1
1
1
1
1
1
1
1
1
1
1
1
1
1
1
1
1
1
1
1
1
1
1
1
1
1
1
1
1
1
1
1
1
1
1
1
1
1
1
1
1
1
1
1
1
1
1
1
1
1
1
1
1
1
1
1
1
1
1
1
1
1
1
1
1
1
1
1
1
1
1
1
1
1
1
1
1
1
1
1
1
1
1
1
1
1
1
1
1
1
1
1
1
1
1
1
1
1
1
1
1
1
1
1
1
1
1
1
1
1
1
1
1
1
1
1
1
1
1
1
1
1
1
1
1
1
1
1
1
1
1
1
1
1
1
1
1
1
1
1
1
1
1
1
1
1
1
1
1
1
1
1
1
1
1
1
1
1
1
1
1
1
1
1
1
1
1
1
1
1
1
1
1
1
1
1
1
1
1
1
1
1
1
1
1
1
1
1
1
1
1
1
1
1
1
1
1
1
1
1
1
1
1
1
1
1
1
1
1
1
1
1
1
1
1
1
1
1
1
1
1
1
1
1
1
1
1
1
1
1
1
1
1
1
1
1
1
1
1
1
1
1
1
1
1
1
1
1
1
1
1
1
1
1
1
1
1
1
1
1
1
1
1
1
1
1
1
1
1
1
1
1
1
1
1
1
1
1
1
1
1
1
1
1
1
1
1
1
1
1
1
1
1
1
1
1
1
1
1
1
1
1
1
1
1
1
1
1
1
1
1
1
1
1
1
1
1
1
1
1
1
1
1
1
1
1
1
1
1
1
1
1
1
1
1
1
1
1
1
1
1
1
1
1
1
1
1
1
1
1
1
1
1
1
1
1
1
1
1
1
1
1
1
1
1
1
1
1
1
1
1
1
1
1
1
1
1
1
1
1
1
1
1
1
1
1
1
1
1
1
1
1
1
1
1
1
1
1
1
1
1
1
1
1
1
1
1
1
1
1
1
1
1
1
1
1
1
1
1
1
1
1
1
1
1
1
1
1
1
1
1
1
1
1
1
1
1
1
1
1
1
1
1
1
1
1
1
1
1
1
1
1
1
1
1
1
1
1
1
1
1
1
1
1
1
1
1
1
1
1
1
1
1
1
1
1
1
1
1
1
1
1
1
1
1
1
1
1
1
1
1
1
1
1
1
1
1
1
1
1
1
1
1
1
1
1
1
1
1
1
1
1
1
1
1
1
1
1
1
1
1
1
1
1
1
1
1
1
1
1
1
1
1
1
1
1
1
1
1
1
1
1
1
1
1
1
1
1
1
1
1
1
1
1
1
1
1
1
1.06966
1.16034
1.25829
1.36053
1.4529
1.52789
1.62171
1.74702
1.8286
1.87256
1.92324
2.01158
2.08765
2.09033
2.0901
2.10031
2.0981
2.08323
2.0491
2.00263
1.96318
1.92778
1.88661
1.84747
1.83788
1.83797
1.83193
1.82534
1.82776
1.83957
1.85884
1.87499
1.87353
1.8678
1.86585
1.86997
1.88097
1.89109
1.89529
1.89519
1.89422
1.89302
1.89004
1.88499
1.88286
1.88335
1.88871
1.89876
1.90379
1.90494
1.90449
1.90132
1.89728
1.89398
1.89142
1.88939
1.889
1.8907
1.89727
1.90495
1.90997
1.91123
1.91033
1.90657
1.89913
1.89034
1.88596
1.88573
1.88781
1.89424
1.90539
1.91412
1.91697
1.91683
1.91367
1.90725
1.90059
1.8962
1.89307
1.89281
1
1
0.999922
0.999311
1.011
1.04753
1.05454
1.09496
1.21852
1.32608
1.38016
1.45568
1.56952
1.64903
1.67456
1.72658
1.77242
1.80326
1.82996
1.84104
1.89452
1.93265
1.92628
1.92456
1.92684
1.92994
1.9265
1.91164
1.89632
1.8935
1.89288
1.88846
1.87869
1.87318
1.87429
1.87973
1.88684
1.88896
1.89057
1.89446
1.89904
1.90035
1.89909
1.89716
1.89584
1.8959
1.89678
1.89754
1.89853
1.90083
1.90383
1.90495
1.90444
1.9043
1.90418
1.90333
1.90141
1.89962
1.89956
1.89998
1.90289
1.90794
1.90982
1.90849
1.90523
1.90321
1.90089
1.89916
1.89991
1.90231
1.90437
1.90606
1.90867
1.90986
1.90957
1.90736
1.90485
1.90461
1.90489
1.90579
1
1
1
1
0.999999
1
1
0.999988
1
1
0.999781
0.99993
1.01779
1.08825
1.15335
1.25539
1.44666
1.5884
1.72845
1.87013
1.96252
2.01813
2.01603
2.01524
2.01752
2.01452
2.00811
1.9908
1.96861
1.9381
1.91829
1.91091
1.90363
1.9028
1.90358
1.90494
1.90523
1.90543
1.90652
1.90984
1.9149
1.91679
1.91789
1.91882
1.91868
1.919
1.91898
1.9159
1.9118
1.91079
1.91142
1.91573
1.92242
1.92475
1.92422
1.92272
1.92091
1.91731
1.91184
1.90921
1.90885
1.90949
1.91459
1.92067
1.92231
1.92216
1.92083
1.91803
1.91577
1.91508
1.91299
1.91074
1.90862
1.9078
1.90852
1.91214
1.91743
1.91925
1.92161
1.92204
1
1
1
1
1
1
1
1
1
1
1
1
1
1
1
0.999654
1.00165
1.01701
1.09426
1.29803
1.49749
1.71087
1.82616
1.89901
1.98449
1.99252
1.99548
1.98686
1.96346
1.97005
1.97583
1.97841
1.97844
1.97515
1.9685
1.96013
1.95128
1.93614
1.92431
1.92272
1.92424
1.92755
1.93279
1.94178
1.94723
1.94839
1.94782
1.94344
1.93491
1.92921
1.92858
1.92988
1.93639
1.94482
1.94769
1.9478
1.94647
1.94182
1.93357
1.92579
1.92238
1.92209
1.92424
1.93176
1.94004
1.94285
1.94242
1.93926
1.93563
1.93136
1.92654
1.92138
1.91761
1.91672
1.91713
1.91967
1.9263
1.93442
1.93737
1.93626
1
1
1
1
1
1
1
1
1
1
1
1
1
1
1
1
1
1
1
0.999978
0.999123
1.03112
1.18629
1.33666
1.52367
1.71763
1.85842
1.97392
1.99398
2.01722
2.03512
2.03144
2.02942
2.02688
2.01966
2.00646
1.98411
1.96599
1.95498
1.95024
1.94889
1.94908
1.95144
1.95874
1.96679
1.96764
1.96619
1.96235
1.95558
1.95022
1.95002
1.95063
1.95254
1.95798
1.96484
1.96674
1.96629
1.96253
1.95375
1.94413
1.93984
1.93961
1.94058
1.94453
1.95062
1.95587
1.95849
1.95878
1.95591
1.94877
1.94208
1.9373
1.93401
1.9331
1.93345
1.93421
1.93556
1.94011
1.94578
1.94672
1
1
1
1
1
1
1
1
1
1
1
1
1
1
1
1
1
1
1
1
1
1
1
0.999452
1.0031
1.08014
1.19356
1.3816
1.60153
1.75863
1.87561
1.91383
1.95131
1.97695
1.98542
1.98678
1.98844
1.99331
1.99062
1.98598
1.97844
1.96925
1.96651
1.96689
1.96945
1.96957
1.96741
1.96494
1.96284
1.96183
1.96333
1.96558
1.96604
1.96718
1.97073
1.97378
1.9743
1.97382
1.97107
1.96664
1.96097
1.95799
1.95829
1.96028
1.96146
1.96195
1.96251
1.96333
1.96354
1.9631
1.9612
1.95887
1.95618
1.95311
1.9521
1.95213
1.95242
1.95304
1.95359
1.95303
1
1
1
1
1
1
1
1
1
1
1
1
1
1
1
1
1
1
1
1
1
1
1
1
1
1
1
0.999307
1.02069
1.08012
1.24913
1.47791
1.62327
1.76022
1.84893
1.9429
1.98265
1.99896
2.00428
2.00278
1.99656
1.98301
1.96323
1.95658
1.95846
1.96314
1.96489
1.96612
1.96958
1.97269
1.97198
1.9671
1.96406
1.96391
1.96488
1.9675
1.97241
1.97655
1.97829
1.97926
1.9798
1.97921
1.97623
1.97182
1.96952
1.9661
1.96327
1.96241
1.96329
1.96779
1.97277
1.97382
1.97424
1.97415
1.97314
1.97112
1.969
1.96449
1.95911
1.95506
1
1
1
1
1
1
1
1
1
1
1
1
1
1
1
1
1
1
1
1
1
1
1
1
1
1
1
1
1
1
0.999552
1.00449
1.02503
1.15519
1.36051
1.52695
1.68065
1.78108
1.8927
1.95103
1.95936
1.95087
1.94501
1.94591
1.94982
1.95882
1.9659
1.97179
1.97636
1.9759
1.97345
1.96901
1.96142
1.95584
1.95578
1.95845
1.96359
1.96878
1.97442
1.97928
1.98323
1.9863
1.98707
1.98473
1.97506
1.96563
1.96215
1.96197
1.96298
1.96603
1.97324
1.98033
1.98158
1.98139
1.98098
1.98032
1.97526
1.96737
1.96101
1.95988
1
1
1
1
1
1
1
1
1
1
1
1
1
1
1
1
1
1
1
1
1
1
1
1
1
1
1
1
1
1
1
1
1
1
0.99965
1.00899
1.10013
1.24743
1.4278
1.61649
1.76298
1.88674
1.91303
1.93477
1.9479
1.95283
1.95638
1.96255
1.96641
1.96611
1.96322
1.95793
1.955
1.95274
1.95124
1.95142
1.95334
1.95611
1.95981
1.9663
1.97454
1.98137
1.98446
1.98454
1.98219
1.97401
1.96433
1.96099
1.96202
1.96648
1.97047
1.97311
1.97587
1.97833
1.98008
1.98009
1.97786
1.97518
1.97157
1.96834
1
1
1
1
1
1
1
1
1
1
1
1
1
1
1
1
1
1
1
1
1
1
1
1
1
1
1
1
1
1
1
1
1
1
1
1
1
0.99953
1.00437
1.07542
1.19004
1.38196
1.57341
1.71606
1.82919
1.86571
1.88988
1.8998
1.91231
1.93095
1.94215
1.95112
1.9579
1.95854
1.95753
1.95497
1.94986
1.94388
1.94334
1.94601
1.95168
1.96071
1.97119
1.9754
1.97472
1.97195
1.96985
1.96873
1.96895
1.96903
1.96759
1.96617
1.96642
1.96747
1.96916
1.97057
1.97164
1.97234
1.97299
1.97393
1
1
1
1
1
1
1
1
1
1
1
1
1
1
1
1
1
1
1
1
1
1
1
1
1
1
1
1
1
1
1
1
1
1
1
1
1
1
1
1
0.999641
1.00219
1.05035
1.13738
1.32991
1.55646
1.72983
1.7919
1.83418
1.88403
1.91188
1.93212
1.9463
1.94896
1.94869
1.94775
1.94584
1.94182
1.9358
1.9323
1.93279
1.93654
1.94284
1.9512
1.95934
1.96333
1.9651
1.96887
1.97415
1.9748
1.9726
1.96411
1.95661
1.95547
1.95631
1.95872
1.96111
1.96406
1.96993
1.97455
1
1
1
1
1
1
1
1
1
1
1
1
1
1
1
1
1
1
1
1
1
1
1
1
1
1
1
1
1
1
1
1
1
1
1
1
1
1
1
1
1
1
1
0.999722
1.00257
1.04551
1.14132
1.33733
1.52253
1.68748
1.77334
1.82166
1.87072
1.90718
1.92717
1.93308
1.93715
1.94457
1.94354
1.93676
1.92672
1.92352
1.92483
1.93034
1.93469
1.93877
1.94546
1.95576
1.96432
1.96636
1.9651
1.96181
1.95637
1.9506
1.9489
1.94942
1.95245
1.95731
1.96358
1.96862
1
1
1
1
1
1
1
1
1
1
1
1
1
1
1
1
1
1
1
1
1
1
1
1
1
1
1
1
1
1
1
1
1
1
1
1
1
1
1
1
1
1
1
1
1
1
0.999708
1.0036
1.03038
1.13044
1.37253
1.56381
1.69074
1.77656
1.83737
1.87425
1.90983
1.93114
1.93222
1.93059
1.93061
1.93185
1.93106
1.92637
1.92072
1.9198
1.92178
1.92777
1.93735
1.94801
1.95079
1.95061
1.95085
1.95239
1.95364
1.95363
1.95325
1.95308
1.9548
1.9591
1
1
1
1
1
1
1
1
1
1
1
1
1
1
1
1
1
1
1
1
1
1
1
1
1
1
1
1
1
1
1
1
1
1
1
1
1
1
1
1
1
1
1
1
1
1
1
1
1
0.999701
1.00911
1.04693
1.17103
1.41495
1.61429
1.7199
1.77649
1.84153
1.89865
1.91846
1.92264
1.92552
1.93381
1.93392
1.92996
1.91833
1.91116
1.91335
1.92012
1.92531
1.92757
1.92934
1.93558
1.94326
1.94758
1.9495
1.95049
1.95179
1.95246
1.9523
1
1
1
1
1
1
1
1
1
1
1
1
1
1
1
1
1
1
1
1
1
1
1
1
1
1
1
1
1
1
1
1
1
1
1
1
1
1
1
1
1
1
1
1
1
1
1
1
1
1
1
0.999926
1
1.0146
1.0731
1.2676
1.47398
1.62682
1.75879
1.82963
1.86354
1.89898
1.92206
1.9242
1.92387
1.92122
1.92236
1.92527
1.92384
1.91727
1.9132
1.91292
1.91498
1.92124
1.93209
1.94074
1.94228
1.94394
1.94685
1.94864
1
1
1
1
1
1
1
1
1
1
1
1
1
1
1
1
1
1
1
1
1
1
1
1
1
1
1
1
1
1
1
1
1
1
1
1
1
1
1
1
1
1
1
1
1
1
1
1
1
1
1
1
0.999999
1
0.999869
1.00287
1.02616
1.11957
1.37755
1.64167
1.75526
1.79424
1.84423
1.88972
1.90415
1.91292
1.92081
1.93029
1.93232
1.92901
1.9205
1.90916
1.90566
1.91135
1.91915
1.92305
1.92558
1.92941
1.93651
1.93944
1
1
1
1
1
1
1
1
1
1
1
1
1
1
1
1
1
1
1
1
1
1
1
1
1
1
1
1
1
1
1
1
1
1
1
1
1
1
1
1
1
1
1
1
1
1
1
1
1
1
1
1
1
1
0.999998
0.999999
0.99996
1.00008
1.01488
1.10115
1.33753
1.52486
1.65393
1.78749
1.83849
1.86009
1.88685
1.91626
1.92378
1.92237
1.91819
1.91853
1.92151
1.92454
1.92176
1.91594
1.9142
1.91473
1.91766
1.92245
1
1
1
1
1
1
1
1
1
1
1
1
1
1
1
1
1
1
1
1
1
1
1
1
1
1
1
1
1
1
1
1
1
1
1
1
1
1
1
1
1
1
1
1
1
1
1
1
1
1
1
1
1
1
1
1
0.999999
0.999999
1
0.999983
1.00873
1.04849
1.15957
1.42801
1.74565
1.82421
1.8416
1.86474
1.89615
1.89785
1.89856
1.91064
1.92653
1.93308
1.93225
1.92619
1.91745
1.9114
1.91047
1.91465
1
1
1
1
1
1
1
1
1
1
1
1
1
1
1
1
1
1
1
1
1
1
1
1
1
1
1
1
1
1
1
1
1
1
1
1
1
1
1
1
1
1
1
1
1
1
1
1
1
1
1
1
1
1
1
1
1
1
1
0.999999
1
0.999958
1.00108
1.02602
1.22344
1.53891
1.69173
1.79108
1.86288
1.86764
1.86571
1.878
1.90295
1.92084
1.92361
1.91809
1.91501
1.91762
1.92121
1.92116
1
1
1
1
1
1
1
1
1
1
1
1
1
1
1
1
1
1
1
1
1
1
1
1
1
1
1
1
1
1
1
1
1
1
1
1
1
1
1
1
1
1
1
1
1
1
1
1
1
1
1
1
1
1
1
1
1
1
1
1
1
0.999998
1
0.999969
1.00296
1.07273
1.20188
1.38123
1.64424
1.86601
1.88732
1.88311
1.88968
1.90214
1.90359
1.89447
1.89417
1.90935
1.92455
1.92418
1
1
1
1
1
1
1
1
1
1
1
1
1
1
1
1
1
1
1
1
1
1
1
1
1
1
1
1
1
1
1
1
1
1
1
1
1
1
1
1
1
1
1
1
1
1
1
1
1
1
1
1
1
1
1
1
1
1
1
1
1
1
1
0.999999
0.999996
1.00009
1.00149
1.02107
1.13304
1.50417
1.75745
1.8449
1.89806
1.89977
1.89955
1.89286
1.88942
1.90072
1.91291
1.91409
1
1
1
1
1
1
1
1
1
1
1
1
1
1
1
1
1
1
1
1
1
1
1
1
1
1
1
1
1
1
1
1
1
1
1
1
1
1
1
1
1
1
1
1
1
1
1
1
1
1
1
1
1
1
1
1
1
1
1
1
1
1
1
1
1
1
1
0.999982
1.00112
1.05846
1.33246
1.53515
1.71096
1.85884
1.90632
1.91574
1.92027
1.92758
1.91748
1.90315
1
1
1
1
1
1
1
1
1
1
1
1
1
1
1
1
1
1
1
1
1
1
1
1
1
1
1
1
1
1
1
1
1
1
1
1
1
1
1
1
1
1
1
1
1
1
1
1
1
1
1
1
1
1
1
1
1
1
1
1
1
1
1
1
1
1
1
0.999999
0.999995
1.00023
1.01018
1.09645
1.27154
1.54968
1.76117
1.87182
1.93139
1.93129
1.92855
1.9186
1
1
1
1
1
1
1
1
1
1
1
1
1
1
1
1
1
1
1
1
1
1
1
1
1
1
1
1
1
1
1
1
1
1
1
1
1
1
1
1
1
1
1
1
1
1
1
1
1
1
1
1
1
1
1
1
1
1
1
1
1
1
1
1
1
1
1
1
0.999999
1
0.999988
1.00051
1.00605
1.09058
1.40768
1.7017
1.8156
1.87205
1.90348
1.92034
1
1
1
1
1
1
1
1
1
1
1
1
1
1
1
1
1
1
1
1
1
1
1
1
1
1
1
1
1
1
1
1
1
1
1
1
1
1
1
1
1
1
1
1
1
1
1
1
1
1
1
1
1
1
1
1
1
1
1
1
1
1
1
1
1
1
1
1
1
1
0.999999
0.999999
0.999992
1.00091
1.03218
1.27601
1.5603
1.72836
1.80215
1.88443
1
1
1
1
1
1
1
1
1
1
1
1
1
1
1
1
1
1
1
1
1
1
1
1
1
1
1
1
1
1
1
1
1
1
1
1
1
1
1
1
1
1
1
1
1
1
1
1
1
1
1
1
1
1
1
1
1
1
1
1
1
1
1
1
1
1
1
1
1
1
1
1
1
0.999997
1.00012
1.01211
1.09225
1.33978
1.6056
1.83796
1
1
1
1
1
1
1
1
1
1
1
1
1
1
1
1
1
1
1
1
1
1
1
1
1
1
1
1
1
1
1
1
1
1
1
1
1
1
1
1
1
1
1
1
1
1
1
1
1
1
1
1
1
1
1
1
1
1
1
1
1
1
1
1
1
1
1
1
1
1
1
1
1
1
1
1
1.00074
1.02045
1.15528
1.6913
1
1
1
1
1
1
1
1
1
1
1
1
1
1
1
1
1
1
1
1
1
1
1
1
1
1
1
1
1
1
1
1
1
1
1
1
1
1
1
1
1
1
1
1
1
1
1
1
1
1
1
1
1
1
1
1
1
1
1
1
1
1
1
1
1
1
1
1
1
1
1
1
1
1
1
1
0.999998
1.00005
1.00359
1.3248
1
1
1
1
1
1
1
1
1
1
1
1
1
1
1
1
1
1
1
1
1
1
1
1
1
1
1
1
1
1
1
1
1
1
1
1
1
1
1
1
1
1
1
1
1
1
1
1
1
1
1
1
1
1
1
1
1
1
1
1
1
1
1
1
1
1
1
1
1
1
1
1
1
1
1
1
1
1
1.00002
1.03911
1
1
1
1
1
1
1
1
1
1
1
1
1
1
1
1
1
1
1
1
1
1
1
1
1
1
1
1
1
1
1
1
1
1
1
1
1
1
1
1
1
1
1
1
1
1
1
1
1
1
1
1
1
1
1
1
1
1
1
1
1
1
1
1
1
1
1
1
1
1
1
1
1
1
1
1
1
1
1
1.0011
1
1
1
1
1
1
1
1
1
1
1
1
1
1
1
1
1
1
1
1
1
1
1
1
1
1
1
1
1
1
1
1
1
1
1
1
1
1
1
1
1
1
1
1
1
1
1
1
1
1
1
1
1
1
1
1
1
1
1
1
1
1
1
1
1
1
1
1
1
1
1
1
1
1
1
1
1
1
1
1.00001
1
1
1
1
1
1
1
1
1
1
1
1
1
1
1
1
1
1
1
1
1
1
1
1
1
1
1
1
1
1
1
1
1
1
1
1
1
1
1
1
1
1
1
1
1
1
1
1
1
1
1
1
1
1
1
1
1
1
1
1
1
1
1
1
1
1
1
1
1
1
1
1
1
1
1
1
1
1
1
1
1
1
1
1
1
1
1
1
1
1
1
1
1
1
1
1
1
1
1
1
1
1
1
1
1
1
1
1
1
1
1
1
1
1
1
1
1
1
1
1
1
1
1
1
1
1
1
1
1
1
1
1
1
1
1
1
1
1
1
1
1
1
1
1
1
1
1
1
1
1
1
1
1
1
1
1
1
1
1
1
1
1
1
1
1
1
1
1
1
1
1
1
1
1
1
1
1
1
1
1
1
1
1
1
1
1
1
1
1
1
1
1
1
1
1
1
1
1
1
1
1
1
1
1
1
1
1
1
1
1
1
1
1
1
1
1
1
1
1
1
1
1
1
1
1
1
1
1
1
1
1
1
1
1
1
1
1
1
1
1
1
1
1
1
1
1
1
1
1
1
1
1
1
1
1
1
1
1
1
1
1
1
1
1
1
1
1
1
1
1
1
1
1
1
1
1
1
1
1
1
1
1
1
1
1
1
1
1
1
1
1
1
1
1
1
1
1
1
1
1
1
1
1
1
1
1
1
1
1
1
1
1
1
1
1
1
1
1
1
1
1
1
1
1
1
1
1
1
1
1
1
1
1
1
1
1
1
1
1
1
1
1
1
1
1
1
1
1
1
1
1
1
1
1
1
1
1
1
1
1
1
1
1
1
1
1
1
1
1
1
1
1
1
1
1
1
1
1
1
1
1
1
1
1
1
1
1
1
1
1
1
1
1
1
1
1
1
1
1
1
1
1
1
1
1
1
1
1
1
1
1
1
1
1
1
1
1
1
1
1
1
1
1
1
1
1
1
1
1
1
1
1
1
1
1
1
1
1
1
1
1
1
1
1
1
1
1
1
1
1
1
1
1
1
1
1
1
1
1
1
1
1
1
1
1
1
1
1
1
1
1
1
1
1
1
1
1
1
1
1
1
1
1
1
1
1
1
1
1
1
1
1
1
1
1
1
1
1
1
1
1
1
1
1
1
1
1
1
1
1
1
1
1
1
1
1
1
1
1
1
1
1
1
1
1
1
1
1
1
1
1
1
1
1
1
1
1
1
1
1
1
1
1
1
1
1
1
1
1
1
1
1
1
1
1
1
1
1
1
1
1
1
1
1
1
1
1
1
1
1
1
1
1
1
1
1
1
1
1
1
1
1
1
1
1
1
1
1
1
1
1
1
1
1
1
1
1
1
1
1
1
1
1
1
1
1
1
1
1
1
1
1
1
1
1
1
1
1
1
1
1
1
1
1
1
1
1
1
1
1
1
1
1
1
1
1
1
1
1
1
1
1
1
1
1
1
1
1
1
1
1
1
1
1
1
1
1
1
1
1
1
1
1
1
1
1
1
1
1
1
1
1
1
1
1
1
1
1
1
1
1
1
1
1
1
1
1
1
1
1
1
1
1
1
1
1
1
1
1
1
1
1
1
1
1
1
1
1
1
1
1
1
1
1
1
1
1
1
1
1
)
;

boundaryField
{
    inlet
    {
        type            fixedValue;
        value           uniform 1;
    }
    outlet
    {
        type            zeroGradient;
    }
    bottom
    {
        type            symmetryPlane;
    }
    top
    {
        type            symmetryPlane;
    }
    obstacle
    {
        type            zeroGradient;
    }
    defaultFaces
    {
        type            empty;
    }
}


// ************************************************************************* //
