/*--------------------------------*- C++ -*----------------------------------*\
| =========                 |                                                 |
| \\      /  F ield         | OpenFOAM: The Open Source CFD Toolbox           |
|  \\    /   O peration     | Version:  2206                                  |
|   \\  /    A nd           | Website:  www.openfoam.com                      |
|    \\/     M anipulation  |                                                 |
\*---------------------------------------------------------------------------*/
FoamFile
{
    version     2.0;
    format      ascii;
    arch        "LSB;label=32;scalar=64";
    class       volVectorField;
    location    "0.1";
    object      U;
}
// * * * * * * * * * * * * * * * * * * * * * * * * * * * * * * * * * * * * * //

dimensions      [0 1 -1 0 0 0 0];

internalField   nonuniform List<vector> 
75
(
(5.10101 -4.07195e-15 0)
(5.10101 -4.06612e-15 0)
(5.10101 3.6673e-17 0)
(5.10101 -1.46275e-16 0)
(5.10101 -5.63847e-16 0)
(5.10101 -2.62962e-16 0)
(5.10101 -5.19298e-15 0)
(5.10101 -5.01795e-15 0)
(5.10101 -4.89376e-15 0)
(5.10101 -4.35817e-15 0)
(5.10101 -4.07195e-15 0)
(5.10101 -3.98944e-15 0)
(5.10101 -7.5338e-15 0)
(5.10101 -7.01454e-15 0)
(5.10101 -1.24209e-15 0)
(5.10101 -3.74815e-15 0)
(5.10101 -7.61798e-16 0)
(5.10101 2.86841e-15 0)
(5.10101 6.25275e-15 0)
(5.10101 1.15167e-14 0)
(5.10101 3.76107e-15 0)
(5.10101 3.5006e-15 0)
(5.10101 6.13148e-15 0)
(5.10101 1.22167e-14 0)
(5.10101 1.22159e-14 0)
(5.06826 -0.000911716 0)
(5.01431 0.0806035 0)
(4.96424 0.108006 0)
(4.89621 0.254048 0)
(4.83923 0.347951 0)
(4.78158 0.451657 0)
(4.69668 0.655537 0)
(4.67437 0.711118 0)
(4.57544 0.932116 0)
(4.51081 1.05883 0)
(5.10247 -0.00283863 0)
(5.09915 0.00492787 0)
(5.09571 0.00814844 0)
(5.06645 0.0708238 0)
(5.0272 0.171002 0)
(4.93707 0.394059 0)
(4.8483 0.640452 0)
(4.69746 1.0242 0)
(4.58471 1.34215 0)
(4.37592 1.6006 0)
(5.10104 -5.51243e-05 0)
(5.10102 -3.45326e-05 0)
(5.10106 -0.000164738 0)
(5.1009 0.000251546 0)
(5.10181 -0.0018049 0)
(5.10024 0.00324647 0)
(5.09462 0.0157446 0)
(5.06306 0.11997 0)
(5.03866 0.266302 0)
(4.78678 0.948763 0)
(5.10101 4.28414e-07 0)
(5.10101 -1.64323e-06 0)
(5.10101 -1.24525e-05 0)
(5.10101 -8.59106e-06 0)
(5.10103 -7.60465e-05 0)
(5.10105 -0.000196483 0)
(5.10099 -6.47394e-05 0)
(5.10091 0.000444793 0)
(5.10106 0.0074911 0)
(4.95857 0.519535 0)
(5.10101 2.64267e-08 0)
(5.10101 1.01726e-08 0)
(5.10101 4.92369e-08 0)
(5.10101 -8.89634e-07 0)
(5.10101 -4.31549e-06 0)
(5.10101 -5.04477e-05 0)
(5.10102 -3.48854e-05 0)
(5.10103 -3.35873e-05 0)
(5.10102 3.96668e-05 0)
(5.06379 0.0704512 0)
)
;

boundaryField
{
    inlet
    {
        type            fixedValue;
        value           uniform (5.10101 0 0);
    }
    outlet
    {
        type            zeroGradient;
    }
    bottom
    {
        type            symmetryPlane;
    }
    top
    {
        type            symmetryPlane;
    }
    obstacle
    {
        type            slip;
    }
    defaultFaces
    {
        type            empty;
    }
}


// ************************************************************************* //
