/*--------------------------------*- C++ -*----------------------------------*\
| =========                 |                                                 |
| \\      /  F ield         | OpenFOAM: The Open Source CFD Toolbox           |
|  \\    /   O peration     | Version:  2206                                  |
|   \\  /    A nd           | Website:  www.openfoam.com                      |
|    \\/     M anipulation  |                                                 |
\*---------------------------------------------------------------------------*/
FoamFile
{
    version     2.0;
    format      ascii;
    arch        "LSB;label=32;scalar=64";
    class       volScalarField;
    location    "0.1";
    object      T;
}
// * * * * * * * * * * * * * * * * * * * * * * * * * * * * * * * * * * * * * //

dimensions      [0 0 0 1 0 0 0];

internalField   nonuniform List<scalar> 
4800
(
1
1
1
1
1
1
1
1
1
1
1
1
1
1
1
1
1
1
1
1
1
1
1
1
1
1
1
1
1
1
1
1
1
1
1
1
1
1
1
1
1
1
1
1
1
1
1
1
1
1
1
1
1
1
1
1
1
1
1
1
1
1
1
1
1
1
1
1
1
1
1
1
1
1
1
1
1
1
1
1
1
1
1
1
1
1
1
1
1
1
1
1
1
1
1
1
1
1
1
1
1
1
1
1
1
1
1
1
1
1
1
1
1
1
1
1
1
1
1
1
1
1
1
1
1
1
1
1
1
1
1
1
1
1
1
1
1
1
1
1
1
1
1
1
1
1
1
1
1
1
1
1
1
1
1
1
1
1
1
1
1
1
1
1
1
1
1
1
1
1
1
1
1
1
1
1
1
1
1
1
1
1
1
1
1
1
1
1
1
1
1
1
1
1
1
1
1
1
1
1
1
1
1
1
1
1
1
1
1
1
1
1
1
1
1
1
1
1
1
1
1
1
1
1
1
1
1
1
1
1
1
1
1
1
1
1
1
1
1
1
1
1
1
1
1
1
1
1
1
1
1
1
1
1
1
1
1
1
1
1
1
1
1
1
1
1
1
1
1
1
1
1
1
1
1
1
1
1
1
1
1
1
1
1
1
1
1
1
1
1
1
1
1
1
1
1
1
1
1
1
1
1
1
1
1
1
1
1
1
1
1
1
1
1
1
1
1
1
1
1
1
1
1
1
1
1
1
1
1
1
1
1
1
1
1
1
1
1
1
1
1
1
1
1
1
1
1
1
1
1
1
1
1
1
1
1
1
1
1
1
1
1
1
1
1
1
1
1
1
1
1
1
1
1
1
1
1
1
1
1
1
1
1
1
1
1
1
1
1
1
1
1
1
1
1
1
1
1
1
1
1
1
1
1
1
1
1
1
1
1
1
1
1
1
1
1
1
1
1
1
1
1
1
1
1
1
1
1
1
1
1
1
1
1
1
1
1
1
1
1
1
1
1
1
1
1
1
1
1
1
1
1
1
1
1
1
1
1
1
1
1
1
1
1
1
1
1
1
1
1
1
1
1
1
1
1
1
1
1
1
1
1
1
1
1
1
1
1
1
1
1
1
1
1
1
1
1
1
1
1
1
1
1
1
1
1
1
1
1
1
1
1
1
1
1
1
1
1
1
1
1
1
1
1
1
1
1
1
1
1
1
1
1
1
1
1
1
1
1
1
1
1
1
1
1
1
1
1
1
1
1
1
1
1
1
1
1
1
1
1
1
1
1
1
1
1
1
1
1
1
1
1
1
1
1
1
1
1
1
1
1
1
1
1
1
1
1
1
1
1
1
1
1
1
1
1
1
1
1
1
1
1
1
1
1
1
1
1
1
1
1
1
1
1
1
1
1
1
1
1
1
1
1
1
1
1
1
1
1
1
1
1
1
1
1
1
1
1
1
1
1
1
1
1
1
1
1
1
1
1
1
1
1
1
1
1
1
1
1
1
1
1
1
1
1
1
1
1
1
1
1
1
1
1
1
1
1
1
1
1
1
1
1
1
1
1
1
1
1
1
1
1
1
1
1
1
1
1
1
1
1
1
1
1
1
1
1
1
1
1
1
1
1
1
1
1
1
1
1
1
1
1
1
1
1
1
1
1
1
1
1
1
1
1
1
1
1
1
1
1
1
1
1
1
1
1
1
1
1
1
1
1
1
1
1
1
1
1
1
1
1
1
1
1
1
1
1
1
1
1
1
1
1
1
1
1
1
1
1
1
1
1
1
1
1
1
1
1
1
1
1
1
1
1
1
1
1
1
1
1
1
1
1
1
1
1
1
1
1
1
1
1
1
1
1
1
1
1
1
1
1
1
1
1
1
1
1
1
1
1
1
1
1
1
1
1
1
1
1
1
1
1
1
1
1
1
1
1
1
1
1
1
1
1
1
1
1
1
1
1
1
1
1
1
1
1
1
1
1
1
1
1
1
1
1
1
1
1
1
1
1
1
1
1
1
1
1
1
1
1
1
1
1
1
1
1
1
1
1
1
1
1
1
1
1
1
1
1
1
1
1
1
1
1
1
1
1
1
1
1
1
1
1
1
1
1
1
1
1
1
1
1
1
1
1
1
1
1
1
1
1
1
1
1
1
1
1
1
1
1
1
1
1
1
1
1
1
1
1
1
1
1
1
1
1
1
1
1
1
1
1
1
1
1
1
1
1
1
1
1
1
1
1
1
1
1
1
1
1
1
1
1
1
1
1
1
1
1
1
1
1
1
1
1
1
1
1
1
1
1
1
1
1
1
1
1
1
1
1
1
1
1
1
1
1
1
1
1
1
1
1
1
1
1
1
1
1
1
1
1
1
1
1
1
1
1
1
1
1
1
1
1
1
1
1
1
1
1
1
1
1
1
1
1
1
1
1
1
1
1
1
1
1
1
1
1
1
1
1
1
1
1
1
1
1
1
1
1
1
1
1
1
1
1
1
1
1
1
1
1
1
1
1
1
1
1
1
1
1
1
1
1
1
1
1
1
1
1
1
1
1
1
1
1
1
1
1
1
1
1
1
1
1
1
1
1
1
1
1
1
1
1
1
1
1
1
1
1
1
1
1
1
1
1
1
1
1
1
1
1
1
1
1
1
1
1
1
1
1
1
1
1
1
1
1
1
1
1
1
1
1
1
1
1
1
1
1
1
1
1
1
1
1
1
1
1
1
1
1
1
1
1
1
1
1
1
1
1
1
1
1
1
1
1
1
1
1
1
1
1
1
1
1
1
1
1
1
1
1
1
1
1
1
1
1
1
1
1
1
1
1
1
1
1
1
1
1
1
1
1
1
1
1
1
1
1
1
1
1
1
1
1
1
1
1
1
1
1
1
1
1
1
1
1
1
1
1
1
1
1
1
1
1
1
1
1
1
1
1
1
1
1
1
1
1
1
1
1
1
1
1
1
1
1
1
1
1
1
1
1
1
1
1
1
1
1
1
1
1
1
1
1
1
1
1
1
1
1
1
1
1
1
1
1
1
1
1
1
1
1
1
1
1
1
1
1
1
1
1
1
1
1
1
1
1
1
1
1
1
1
1
1
1
1
1
1
1
1
1
1
1
1
1
1
1
1
1
1
1
1
1
1
1
1
1
1
1
1
1
1
1
1
1
1
1
1
1
1
1
1
1
1
1
1
1
1
1
1
1
1
1
1
1
1
1
1
1
1
1
1
1
1
1
1
1
1
1
1
1
1
1
1
1
1
1
1
1
1
1
1
1
1
1
1
1
1
1
1
1
1
1
1
1
1
1
1
1
1
1
1
1
1
1
1
1
1
1
1
1
1
1
1
1
1
1
1
1
1
1
1
1
1
1
1
1
1
1
1
1
1
1
1
1
1
1
1
1
1
1
1
1
1
1
1
1
1
1
1
1
1
1
1
1
1
1
1
1
1
1
1
1
1
1
1
1
1
1
1
1
1
1
1
1
1
1
1
1
1
1
1
1
1
1
1
1
1
1
1
1
1
1
1
1
1
1
1
1
1
1
1
1
1
1
1
1
1
1
1
1
1
1
1
1
1
1
1
1
1
1
1
1
1
1
1
1
1
1
1
1
1
1
1
1
1
1
1
1
1
1
1
1.07323
1.16939
1.25673
1.3497
1.43861
1.50144
1.56755
1.60576
1.62939
1.64511
1.64107
1.62461
1.58866
1.54203
1.51024
1.50135
1.49083
1.47954
1.47954
1.48224
1.48824
1.49583
1.50291
1.50391
1.50394
1.50432
1.50569
1.50711
1.50727
1.5073
1.50805
1.50961
1.51137
1.51292
1.51334
1.51299
1.51239
1.5118
1.51126
1.51108
1.51114
1.51107
1.51097
1.511
1.51139
1.51187
1.51221
1.51237
1.51241
1.51248
1.51273
1.51326
1.51406
1.51497
1.51549
1.51542
1.51505
1.5142
1.51275
1.51071
1.50798
1.50484
1.50191
1.49917
1.49634
1.49339
1.49119
1.49034
1.4901
1.49001
1.49015
1.49064
1.49068
1.49046
1.49006
1.48945
1.4884
1.48748
1.48719
1.48687
1.0003
1.00492
1.02523
1.04898
1.10172
1.17
1.23037
1.30153
1.3541
1.40889
1.4467
1.47218
1.49248
1.52145
1.52927
1.53526
1.53435
1.52507
1.5167
1.50956
1.50722
1.50434
1.50464
1.50483
1.50451
1.50551
1.50727
1.50912
1.50997
1.50993
1.51025
1.51076
1.51142
1.51222
1.51293
1.51332
1.5136
1.51386
1.51404
1.51432
1.51451
1.5145
1.51451
1.51469
1.5149
1.51495
1.5149
1.51461
1.51414
1.51382
1.51381
1.51412
1.51457
1.51501
1.51536
1.51527
1.51486
1.51407
1.51275
1.51076
1.5081
1.50492
1.50173
1.49899
1.49662
1.49494
1.4939
1.49307
1.49238
1.49205
1.49175
1.49119
1.49033
1.48963
1.48907
1.48841
1.48773
1.48742
1.48722
1.48698
1
0.999995
1.00003
1.00002
1.00031
1.00229
1.00892
1.03362
1.08036
1.1623
1.27509
1.39979
1.50183
1.54762
1.58447
1.5833
1.57886
1.56885
1.55477
1.53355
1.51648
1.51483
1.51327
1.51359
1.51556
1.5178
1.51748
1.51769
1.51829
1.51829
1.51752
1.51739
1.51766
1.5178
1.51813
1.51873
1.5191
1.51909
1.51934
1.51971
1.5203
1.52069
1.52077
1.52094
1.52097
1.52089
1.52068
1.52017
1.51948
1.51888
1.51855
1.51849
1.51842
1.51827
1.51814
1.51789
1.5173
1.51629
1.51477
1.51275
1.51017
1.50688
1.50342
1.50075
1.49909
1.49823
1.49759
1.49701
1.4963
1.49541
1.49463
1.49376
1.49268
1.49134
1.49014
1.48917
1.48867
1.48849
1.4883
1.4881
1
1
1
1
1
0.999998
0.999999
1.00001
1.00018
1.00198
1.01601
1.06994
1.20341
1.33275
1.45887
1.51766
1.54748
1.55257
1.54427
1.54401
1.54831
1.54969
1.54648
1.53983
1.53703
1.53161
1.52788
1.52599
1.52616
1.52693
1.52806
1.52856
1.52855
1.52796
1.52789
1.52774
1.52716
1.52642
1.5264
1.52637
1.52646
1.52693
1.52761
1.52833
1.52856
1.52854
1.52835
1.52779
1.52701
1.52628
1.52576
1.52562
1.52542
1.52505
1.5245
1.52381
1.52289
1.52157
1.51979
1.51763
1.51494
1.51158
1.50738
1.50389
1.50255
1.50235
1.50227
1.50177
1.50099
1.49992
1.4987
1.49729
1.49559
1.49385
1.49258
1.49174
1.49139
1.4913
1.49097
1.49053
1
1
1
1
1
1
1
1
1
1
0.999994
1.00007
1.00287
1.02535
1.09333
1.24033
1.36762
1.47635
1.52554
1.55768
1.57576
1.57396
1.57011
1.56191
1.54841
1.53252
1.53131
1.53424
1.53616
1.5365
1.53656
1.53627
1.53623
1.53638
1.5366
1.53633
1.53564
1.53475
1.53462
1.53405
1.53349
1.53354
1.53396
1.53418
1.53399
1.53353
1.53303
1.53271
1.53233
1.53211
1.53214
1.53227
1.53232
1.53225
1.53174
1.53088
1.52983
1.52847
1.52664
1.52435
1.52152
1.51814
1.51371
1.50926
1.50729
1.50658
1.50663
1.50647
1.50578
1.50448
1.50276
1.50102
1.49926
1.49785
1.49689
1.49622
1.4961
1.49577
1.4952
1.4944
1
1
1
1
1
1
1
1
1
1
1
1
1
0.999995
1.00025
1.0071
1.04188
1.125
1.27832
1.39438
1.50067
1.52627
1.54031
1.54305
1.53928
1.53866
1.53952
1.54374
1.54354
1.54316
1.54121
1.53823
1.53693
1.53795
1.53882
1.53911
1.53952
1.54056
1.54097
1.54057
1.5396
1.53911
1.53896
1.5385
1.53782
1.53721
1.53637
1.53596
1.53587
1.53591
1.53615
1.5364
1.53647
1.53649
1.53637
1.53574
1.53485
1.53373
1.53213
1.52988
1.52699
1.52357
1.51951
1.51509
1.51218
1.51108
1.51044
1.50977
1.50874
1.50727
1.50585
1.50462
1.50346
1.50253
1.50174
1.50127
1.50117
1.50082
1.50021
1.49923
1
1
1
1
1
1
1
1
1
1
1
1
1
1
1
0.999996
1.00004
1.00084
1.01505
1.06578
1.17452
1.31696
1.42378
1.51286
1.5313
1.54331
1.5499
1.54863
1.54666
1.54104
1.53287
1.52928
1.53028
1.53369
1.53661
1.53801
1.53908
1.54047
1.5418
1.54221
1.54233
1.54208
1.54095
1.5401
1.53973
1.5391
1.53824
1.5379
1.5379
1.53807
1.53862
1.53871
1.53857
1.53847
1.53841
1.53786
1.53691
1.53571
1.5341
1.53199
1.52924
1.52588
1.52221
1.51856
1.51562
1.51412
1.51313
1.51196
1.51063
1.50944
1.50858
1.50796
1.50726
1.50649
1.50579
1.5052
1.50492
1.50476
1.5043
1.50313
1
1
1
1
1
1
1
1
1
1
1
1
1
1
1
1
1
1
0.999998
1.0002
1.00282
1.0325
1.10136
1.22852
1.35797
1.45202
1.51714
1.52146
1.5303
1.53621
1.52993
1.52734
1.52876
1.53247
1.5343
1.53382
1.53349
1.53413
1.53583
1.53815
1.53987
1.54052
1.54073
1.54093
1.54089
1.54048
1.53972
1.5395
1.5394
1.53917
1.53906
1.53898
1.53866
1.5384
1.53824
1.53773
1.53696
1.53585
1.53424
1.53204
1.52938
1.52614
1.52257
1.51956
1.51738
1.5157
1.51426
1.51308
1.51225
1.51158
1.51101
1.51065
1.51016
1.50937
1.50865
1.50796
1.50727
1.50655
1.50583
1.50457
1
1
1
1
1
1
1
1
1
1
1
1
1
1
1
1
1
1
1
1
0.999997
1.00004
1.00075
1.00858
1.06101
1.15119
1.28336
1.38893
1.48066
1.52129
1.52633
1.53152
1.53607
1.53331
1.53145
1.53033
1.52769
1.52633
1.52646
1.52782
1.53073
1.53356
1.53523
1.53629
1.53708
1.53785
1.53836
1.5386
1.53885
1.53894
1.53898
1.53895
1.53871
1.53823
1.53778
1.53729
1.53666
1.53566
1.53405
1.53188
1.52918
1.52576
1.52207
1.51931
1.51775
1.5163
1.51483
1.51402
1.5134
1.51285
1.51246
1.51218
1.5116
1.51089
1.51022
1.50945
1.50847
1.50728
1.50614
1.50456
1
1
1
1
1
1
1
1
1
1
1
1
1
1
1
1
1
1
1
1
1
1
1
0.999997
1.00028
1.00261
1.02428
1.10232
1.21495
1.34096
1.42977
1.50068
1.52159
1.52492
1.5313
1.53207
1.52776
1.52521
1.52374
1.52313
1.52431
1.52661
1.52776
1.52866
1.52968
1.53111
1.53304
1.53444
1.53522
1.53568
1.53586
1.53595
1.5361
1.53603
1.53605
1.53612
1.536
1.53528
1.53368
1.53132
1.52837
1.52493
1.52132
1.51851
1.51686
1.51568
1.51474
1.51408
1.5135
1.51303
1.51275
1.51253
1.51202
1.51124
1.51026
1.50907
1.5078
1.50656
1.50535
1.50361
1
1
1
1
1
1
1
1
1
1
1
1
1
1
1
1
1
1
1
1
1
1
1
1
1
0.999997
1.00004
1.00119
1.00891
1.06406
1.17184
1.29236
1.38173
1.45904
1.51187
1.52112
1.52408
1.52724
1.52894
1.52749
1.52604
1.52486
1.52434
1.52443
1.52463
1.5251
1.52644
1.52823
1.52946
1.53012
1.53053
1.53089
1.5315
1.53207
1.53251
1.53303
1.53314
1.53275
1.53141
1.52916
1.52629
1.52299
1.51958
1.51678
1.51503
1.51382
1.51314
1.51272
1.51229
1.51185
1.5115
1.51117
1.51069
1.50994
1.50899
1.50817
1.50754
1.50687
1.5059
1.50362
1
1
1
1
1
1
1
1
1
1
1
1
1
1
1
1
1
1
1
1
1
1
1
1
1
1
1
1
1
1.00052
1.00503
1.02961
1.12069
1.23803
1.35907
1.42814
1.48642
1.51215
1.52015
1.52486
1.52614
1.52601
1.52656
1.52644
1.52569
1.52501
1.52504
1.52529
1.52558
1.52589
1.52627
1.52656
1.52714
1.52789
1.52844
1.529
1.52913
1.52885
1.52773
1.52563
1.52292
1.51993
1.51698
1.5146
1.51283
1.51133
1.51012
1.5096
1.50925
1.50886
1.50843
1.50806
1.50773
1.50731
1.5068
1.50633
1.50586
1.50528
1.50526
1.50427
1
1
1
1
1
1
1
1
1
1
1
1
1
1
1
1
1
1
1
1
1
1
1
1
1
1
1
1
1
1
0.999998
1.0001
1.00253
1.01546
1.0835
1.2157
1.34034
1.41342
1.46178
1.502
1.51575
1.51945
1.52226
1.5234
1.5233
1.52344
1.52409
1.52468
1.525
1.52547
1.52554
1.52537
1.52531
1.52558
1.52627
1.52655
1.52644
1.52585
1.52438
1.52211
1.51944
1.51658
1.51377
1.51141
1.50964
1.50841
1.50763
1.50722
1.50698
1.50665
1.50623
1.50573
1.50517
1.50456
1.50401
1.50345
1.50289
1.50253
1.50291
1.50263
1
1
1
1
1
1
1
1
1
1
1
1
1
1
1
1
1
1
1
1
1
1
1
1
1
1
1
1
1
1
1
1
0.999999
1.00003
1.00131
1.01375
1.0591
1.1817
1.30918
1.42017
1.45783
1.48379
1.50289
1.51107
1.51438
1.51626
1.51939
1.52133
1.52196
1.52241
1.52267
1.52288
1.52322
1.52373
1.52442
1.52443
1.5241
1.52327
1.52158
1.51911
1.51633
1.5134
1.51046
1.50783
1.50579
1.50468
1.50434
1.50423
1.50414
1.50402
1.50395
1.5039
1.50368
1.50294
1.50153
1.5
1.49912
1.49869
1.49872
1.49902
1
1
1
1
1
1
1
1
1
1
1
1
1
1
1
1
1
1
1
1
1
1
1
1
1
1
1
1
1
1
1
1
1
1
0.999999
1.00002
1.00057
1.01005
1.04561
1.15398
1.29606
1.42169
1.47454
1.48726
1.50149
1.50569
1.50969
1.51318
1.51467
1.51582
1.51686
1.51775
1.51869
1.5198
1.52104
1.52133
1.52099
1.52002
1.51823
1.5157
1.51285
1.50976
1.50671
1.50424
1.50248
1.50133
1.50093
1.50085
1.50071
1.50066
1.50067
1.50067
1.50064
1.50059
1.50002
1.49856
1.49629
1.49457
1.49373
1.49354
1
1
1
1
1
1
1
1
1
1
1
1
1
1
1
1
1
1
1
1
1
1
1
1
1
1
1
1
1
1
1
1
1
1
1
1
0.999999
1.00002
1.00037
1.00649
1.04763
1.14676
1.28879
1.40721
1.48381
1.50251
1.50865
1.51324
1.51259
1.51298
1.51424
1.51486
1.51519
1.51603
1.51731
1.51811
1.51786
1.51706
1.51538
1.51292
1.51006
1.50692
1.50386
1.5016
1.49995
1.49862
1.4982
1.49806
1.49769
1.49734
1.49724
1.49713
1.49701
1.49712
1.49726
1.4966
1.49489
1.49235
1.49012
1.48783
1
1
1
1
1
1
1
1
1
1
1
1
1
1
1
1
1
1
1
1
1
1
1
1
1
1
1
1
1
1
1
1
1
1
1
1
1
1
0.999999
1.00001
1.00047
1.00516
1.0499
1.1471
1.29221
1.40572
1.48504
1.51179
1.51669
1.51838
1.51911
1.51856
1.51849
1.51863
1.51878
1.51856
1.51792
1.51669
1.51481
1.51224
1.50937
1.50632
1.50313
1.50047
1.49827
1.49689
1.49651
1.49617
1.49548
1.49446
1.49371
1.49313
1.49257
1.49242
1.49257
1.49262
1.49234
1.49062
1.48788
1.48403
1
1
1
1
1
1
1
1
1
1
1
1
1
1
1
1
1
1
1
1
1
1
1
1
1
1
1
1
1
1
1
1
1
1
1
1
1
1
1
1
0.999999
1
1.00063
1.00564
1.04917
1.17148
1.30999
1.40644
1.47408
1.50983
1.51578
1.51594
1.51759
1.52004
1.52008
1.51935
1.51847
1.51707
1.51495
1.51234
1.50954
1.50664
1.50359
1.50049
1.49784
1.4963
1.49569
1.49527
1.49472
1.49379
1.49215
1.48992
1.48825
1.48711
1.48669
1.48704
1.48764
1.48741
1.48548
1.48124
1
1
1
1
1
1
1
1
1
1
1
1
1
1
1
1
1
1
1
1
1
1
1
1
1
1
1
1
1
1
1
1
1
1
1
1
1
1
1
1
1
1
0.999999
1.00001
1.00072
1.00904
1.05304
1.18987
1.34206
1.44267
1.47372
1.49202
1.5058
1.51401
1.5141
1.51396
1.514
1.51394
1.51283
1.51061
1.50815
1.50576
1.50318
1.49994
1.49663
1.49502
1.49416
1.49342
1.49288
1.49291
1.49251
1.49066
1.4872
1.48388
1.48208
1.48151
1.48195
1.48281
1.48277
1.47968
1
1
1
1
1
1
1
1
1
1
1
1
1
1
1
1
1
1
1
1
1
1
1
1
1
1
1
1
1
1
1
1
1
1
1
1
1
1
1
1
1
1
1
1
0.999999
1.00002
1.00086
1.0153
1.07366
1.2207
1.37191
1.46955
1.49642
1.5069
1.50991
1.50999
1.51034
1.51028
1.50941
1.50778
1.50561
1.50366
1.50165
1.49852
1.4948
1.49263
1.49117
1.49003
1.48982
1.49026
1.49055
1.49029
1.48838
1.48494
1.48043
1.47769
1.477
1.47756
1.47846
1.47707
1
1
1
1
1
1
1
1
1
1
1
1
1
1
1
1
1
1
1
1
1
1
1
1
1
1
1
1
1
1
1
1
1
1
1
1
1
1
1
1
1
1
1
1
1
1
1
1.00009
1.00155
1.02502
1.1095
1.26262
1.40026
1.48469
1.51675
1.51666
1.51703
1.51586
1.51397
1.51155
1.50814
1.50458
1.50174
1.49886
1.49535
1.4919
1.48891
1.48661
1.48532
1.48471
1.48563
1.48741
1.48768
1.48609
1.48216
1.47728
1.47409
1.47303
1.4734
1.47406
1
1
1
1
1
1
1
1
1
1
1
1
1
1
1
1
1
1
1
1
1
1
1
1
1
1
1
1
1
1
1
1
1
1
1
1
1
1
1
1
1
1
1
1
1
1
1
1
1
1.00027
1.00368
1.04176
1.16018
1.31346
1.42823
1.4926
1.51332
1.51585
1.51634
1.51626
1.51295
1.50722
1.50324
1.50007
1.4974
1.49546
1.49274
1.48822
1.48331
1.48117
1.48058
1.48145
1.48401
1.48431
1.4827
1.47901
1.47437
1.47106
1.47032
1.47121
1
1
1
1
1
1
1
1
1
1
1
1
1
1
1
1
1
1
1
1
1
1
1
1
1
1
1
1
1
1
1
1
1
1
1
1
1
1
1
1
1
1
1
1
1
1
1
1
1
1
1.00001
1.00076
1.0091
1.07176
1.23416
1.38905
1.45538
1.48318
1.50166
1.50858
1.50711
1.50323
1.49902
1.49619
1.49487
1.49517
1.49522
1.49337
1.48929
1.48255
1.47792
1.4768
1.47715
1.47979
1.48069
1.4791
1.47594
1.47238
1.46973
1.46931
1
1
1
1
1
1
1
1
1
1
1
1
1
1
1
1
1
1
1
1
1
1
1
1
1
1
1
1
1
1
1
1
1
1
1
1
1
1
1
1
1
1
1
1
1
1
1
1
1
1
1
1
1.00005
1.00242
1.02766
1.1309
1.29912
1.44608
1.49435
1.50023
1.49976
1.49692
1.49245
1.48793
1.48566
1.48616
1.49061
1.49321
1.49255
1.48856
1.48165
1.47545
1.47365
1.47369
1.47587
1.47723
1.4764
1.47448
1.4719
1.46911
1
1
1
1
1
1
1
1
1
1
1
1
1
1
1
1
1
1
1
1
1
1
1
1
1
1
1
1
1
1
1
1
1
1
1
1
1
1
1
1
1
1
1
1
1
1
1
1
1
1
1
1
1
1.00001
1.00033
1.00786
1.06473
1.21532
1.3798
1.47421
1.5058
1.50513
1.50297
1.49302
1.48299
1.47946
1.47964
1.48464
1.48937
1.48914
1.48633
1.48089
1.47404
1.47106
1.47093
1.47266
1.47468
1.47391
1.47259
1.47067
1
1
1
1
1
1
1
1
1
1
1
1
1
1
1
1
1
1
1
1
1
1
1
1
1
1
1
1
1
1
1
1
1
1
1
1
1
1
1
1
1
1
1
1
1
1
1
1
1
1
1
1
1
1
1
1.00006
1.00176
1.02669
1.14051
1.30702
1.41999
1.48682
1.50001
1.49987
1.49691
1.48481
1.476
1.47536
1.47849
1.48516
1.48613
1.48448
1.47974
1.47326
1.46896
1.46866
1.46932
1.47119
1.47218
1.47116
1
1
1
1
1
1
1
1
1
1
1
1
1
1
1
1
1
1
1
1
1
1
1
1
1
1
1
1
1
1
1
1
1
1
1
1
1
1
1
1
1
1
1
1
1
1
1
1
1
1
1
1
1
1
1
1
1
1.00045
1.00864
1.07776
1.23131
1.36453
1.45062
1.49488
1.49465
1.49346
1.48462
1.47328
1.47147
1.47379
1.48006
1.48226
1.4809
1.47781
1.47323
1.4684
1.46696
1.46724
1.46894
1.47052
1
1
1
1
1
1
1
1
1
1
1
1
1
1
1
1
1
1
1
1
1
1
1
1
1
1
1
1
1
1
1
1
1
1
1
1
1
1
1
1
1
1
1
1
1
1
1
1
1
1
1
1
1
1
1
1
1
1
1.00008
1.00293
1.03335
1.15158
1.31063
1.41066
1.47731
1.48839
1.48692
1.48399
1.4737
1.46878
1.46945
1.47329
1.47731
1.47721
1.47553
1.47332
1.47001
1.4672
1.46663
1.46756
1
1
1
1
1
1
1
1
1
1
1
1
1
1
1
1
1
1
1
1
1
1
1
1
1
1
1
1
1
1
1
1
1
1
1
1
1
1
1
1
1
1
1
1
1
1
1
1
1
1
1
1
1
1
1
1
1
1
1
1.00001
1.00074
1.01206
1.09176
1.24
1.36958
1.43703
1.4798
1.48221
1.48237
1.47758
1.46908
1.46685
1.46735
1.46982
1.47323
1.47461
1.47434
1.47243
1.46812
1.46622
1
1
1
1
1
1
1
1
1
1
1
1
1
1
1
1
1
1
1
1
1
1
1
1
1
1
1
1
1
1
1
1
1
1
1
1
1
1
1
1
1
1
1
1
1
1
1
1
1
1
1
1
1
1
1
1
1
1
1
1
1
1.00016
1.00446
1.04205
1.16926
1.31081
1.40113
1.4615
1.47911
1.47849
1.47924
1.47451
1.46618
1.46366
1.46456
1.46927
1.47374
1.47427
1.47324
1.46865
1
1
1
1
1
1
1
1
1
1
1
1
1
1
1
1
1
1
1
1
1
1
1
1
1
1
1
1
1
1
1
1
1
1
1
1
1
1
1
1
1
1
1
1
1
1
1
1
1
1
1
1
1
1
1
1
1
1
1
1
1
1
1.00003
1.00126
1.01597
1.0986
1.24499
1.36972
1.42731
1.46454
1.47717
1.47799
1.47692
1.46934
1.46284
1.46283
1.4662
1.47228
1.47338
1.47167
1
1
1
1
1
1
1
1
1
1
1
1
1
1
1
1
1
1
1
1
1
1
1
1
1
1
1
1
1
1
1
1
1
1
1
1
1
1
1
1
1
1
1
1
1
1
1
1
1
1
1
1
1
1
1
1
1
1
1
1
1
1
1
1
1.00022
1.00589
1.0455
1.17482
1.32746
1.40216
1.44304
1.47251
1.47605
1.4772
1.47303
1.46388
1.4616
1.46317
1.4692
1.47226
1
1
1
1
1
1
1
1
1
1
1
1
1
1
1
1
1
1
1
1
1
1
1
1
1
1
1
1
1
1
1
1
1
1
1
1
1
1
1
1
1
1
1
1
1
1
1
1
1
1
1
1
1
1
1
1
1
1
1
1
1
1
1
1
1
1.00005
1.00151
1.01987
1.11077
1.26732
1.3763
1.42288
1.46141
1.47575
1.47647
1.47405
1.4644
1.46065
1.46245
1.4685
1
1
1
1
1
1
1
1
1
1
1
1
1
1
1
1
1
1
1
1
1
1
1
1
1
1
1
1
1
1
1
1
1
1
1
1
1
1
1
1
1
1
1
1
1
1
1
1
1
1
1
1
1
1
1
1
1
1
1
1
1
1
1
1
1
1
1.00001
1.00037
1.00803
1.05931
1.19926
1.33572
1.407
1.45384
1.47423
1.47402
1.47332
1.46645
1.46131
1.46282
1
1
1
1
1
1
1
1
1
1
1
1
1
1
1
1
1
1
1
1
1
1
1
1
1
1
1
1
1
1
1
1
1
1
1
1
1
1
1
1
1
1
1
1
1
1
1
1
1
1
1
1
1
1
1
1
1
1
1
1
1
1
1
1
1
1
1
1
1.00008
1.00261
1.02794
1.13747
1.29174
1.39184
1.43606
1.46454
1.47175
1.4724
1.47074
1.46497
1
1
1
1
1
1
1
1
1
1
1
1
1
1
1
1
1
1
1
1
1
1
1
1
1
1
1
1
1
1
1
1
1
1
1
1
1
1
1
1
1
1
1
1
1
1
1
1
1
1
1
1
1
1
1
1
1
1
1
1
1
1
1
1
1
1
1
1
1
1.00001
1.00073
1.01393
1.08455
1.2416
1.36894
1.41925
1.44911
1.46898
1.47178
1.47082
1
1
1
1
1
1
1
1
1
1
1
1
1
1
1
1
1
1
1
1
1
1
1
1
1
1
1
1
1
1
1
1
1
1
1
1
1
1
1
1
1
1
1
1
1
1
1
1
1
1
1
1
1
1
1
1
1
1
1
1
1
1
1
1
1
1
1
1
1
1
1
1.00024
1.00571
1.04964
1.18475
1.34188
1.40889
1.43669
1.46043
1.469
1
1
1
1
1
1
1
1
1
1
1
1
1
1
1
1
1
1
1
1
1
1
1
1
1
1
1
1
1
1
1
1
1
1
1
1
1
1
1
1
1
1
1
1
1
1
1
1
1
1
1
1
1
1
1
1
1
1
1
1
1
1
1
1
1
1
1
1
1
1
1
1
1.00006
1.00211
1.02881
1.13355
1.29484
1.40682
1.43285
1.45409
1
1
1
1
1
1
1
1
1
1
1
1
1
1
1
1
1
1
1
1
1
1
1
1
1
1
1
1
1
1
1
1
1
1
1
1
1
1
1
1
1
1
1
1
1
1
1
1
1
1
1
1
1
1
1
1
1
1
1
1
1
1
1
1
1
1
1
1
1
1
1
1
1
1.00001
1.00085
1.01461
1.09255
1.25573
1.36425
1.49709
1
1
1
1
1
1
1
1
1
1
1
1
1
1
1
1
1
1
1
1
1
1
1
1
1
1
1
1
1
1
1
1
1
1
1
1
1
1
1
1
1
1
1
1
1
1
1
1
1
1
1
1
1
1
1
1
1
1
1
1
1
1
1
1
1
1
1
1
1
1
1
1
1
1
1
1.0003
1.00745
1.06823
1.23639
1.58723
)
;

boundaryField
{
    inlet
    {
        type            fixedValue;
        value           uniform 1;
    }
    outlet
    {
        type            zeroGradient;
    }
    bottom
    {
        type            symmetryPlane;
    }
    top
    {
        type            symmetryPlane;
    }
    obstacle
    {
        type            zeroGradient;
    }
    defaultFaces
    {
        type            empty;
    }
}


// ************************************************************************* //
