/*--------------------------------*- C++ -*----------------------------------*\
| =========                 |                                                 |
| \\      /  F ield         | OpenFOAM: The Open Source CFD Toolbox           |
|  \\    /   O peration     | Version:  2206                                  |
|   \\  /    A nd           | Website:  www.openfoam.com                      |
|    \\/     M anipulation  |                                                 |
\*---------------------------------------------------------------------------*/
FoamFile
{
    version     2.0;
    format      ascii;
    arch        "LSB;label=32;scalar=64";
    class       volVectorField;
    location    "0.14";
    object      U;
}
// * * * * * * * * * * * * * * * * * * * * * * * * * * * * * * * * * * * * * //

dimensions      [0 1 -1 0 0 0 0];

internalField   nonuniform List<vector> 
4800
(
(6.27273 2.99052e-15 0)
(6.27273 2.45042e-15 0)
(6.27273 1.41758e-14 0)
(6.27273 7.88803e-15 0)
(6.27273 -3.36725e-15 0)
(6.27273 7.40795e-15 0)
(6.27273 5.91335e-14 0)
(6.27273 9.85303e-14 0)
(6.27273 8.43279e-14 0)
(6.27273 3.16321e-14 0)
(6.27273 2.68213e-14 0)
(6.27273 6.36843e-14 0)
(6.27273 1.10872e-13 0)
(6.27273 1.30506e-13 0)
(6.27273 8.18808e-14 0)
(6.27273 7.07022e-14 0)
(6.27273 5.9557e-14 0)
(6.27273 5.98603e-14 0)
(6.27273 4.37442e-14 0)
(6.27273 3.01985e-14 0)
(6.27273 8.94821e-15 0)
(6.27273 2.14037e-14 0)
(6.27273 2.84449e-14 0)
(6.27273 2.00735e-14 0)
(6.27273 1.86699e-16 0)
(6.27273 3.49727e-15 0)
(6.27273 8.62182e-14 0)
(6.27273 1.41011e-13 0)
(6.27273 1.37557e-13 0)
(6.27273 9.41129e-14 0)
(6.27273 3.53561e-14 0)
(6.27273 -9.00155e-15 0)
(6.27273 -7.57764e-14 0)
(6.27273 -9.8317e-14 0)
(6.27273 -9.02889e-14 0)
(6.27273 -7.07189e-14 0)
(6.27273 -6.1934e-14 0)
(6.27273 -6.45978e-14 0)
(6.27273 -7.89936e-14 0)
(6.27273 -8.2881e-15 0)
(6.27273 9.23493e-16 0)
(6.27273 1.69396e-14 0)
(6.27273 3.74831e-14 0)
(6.27273 3.80566e-14 0)
(6.27273 1.57861e-14 0)
(6.27273 1.73063e-14 0)
(6.27273 2.55377e-14 0)
(6.27273 1.55594e-14 0)
(6.27273 -8.00138e-17 0)
(6.27273 4.4241e-15 0)
(6.27273 1.38857e-14 0)
(6.27273 1.45492e-14 0)
(6.27273 5.57296e-14 0)
(6.27273 1.49309e-13 0)
(6.27273 1.64325e-13 0)
(6.27273 1.45078e-13 0)
(6.27273 6.14906e-14 0)
(6.27273 5.50228e-14 0)
(6.27273 2.59045e-14 0)
(6.27273 1.34357e-15 0)
(6.27273 -1.59194e-14 0)
(6.27273 2.45642e-14 0)
(6.27273 4.52845e-14 0)
(6.27273 -1.80731e-14 0)
(6.27273 -7.28292e-14 0)
(6.27273 -1.98368e-15 0)
(6.27273 6.43078e-14 0)
(6.27273 1.43151e-13 0)
(6.27273 2.11397e-13 0)
(6.27273 1.76157e-13 0)
(6.27273 7.15924e-14 0)
(6.27273 4.90385e-14 0)
(6.27273 2.00135e-14 0)
(6.27273 -1.08259e-13 0)
(6.27273 -1.46462e-13 0)
(6.27273 -1.39294e-13 0)
(6.27273 -1.18134e-13 0)
(6.27273 -1.04478e-13 0)
(6.27273 -4.2304e-14 0)
(6.27273 -2.76235e-14 0)
(6.27273 -3.32391e-15 0)
(6.27273 -1.18387e-14 0)
(6.27273 -9.37829e-15 0)
(6.27273 2.54044e-15 0)
(6.27273 9.15825e-15 0)
(6.27273 3.2939e-15 0)
(6.27273 -3.71531e-14 0)
(6.27273 -7.22491e-14 0)
(6.27273 -5.05721e-14 0)
(6.27273 -2.00801e-14 0)
(6.27273 4.38409e-15 0)
(6.27273 3.21722e-15 0)
(6.27273 -6.94453e-15 0)
(6.27273 -3.19055e-14 0)
(6.27273 -2.20571e-14 0)
(6.27273 -2.6848e-14 0)
(6.27273 -5.34592e-14 0)
(6.27273 -1.00104e-13 0)
(6.27273 -1.16934e-13 0)
(6.27273 -5.53396e-14 0)
(6.27273 1.28512e-13 0)
(6.27273 1.56174e-13 0)
(6.27273 1.38167e-13 0)
(6.27273 3.32624e-14 0)
(6.27273 1.78698e-15 0)
(6.27273 5.08688e-14 0)
(6.27273 1.29349e-13 0)
(6.27273 1.42658e-13 0)
(6.27273 1.21014e-13 0)
(6.27273 1.11719e-13 0)
(6.27273 4.49144e-14 0)
(6.27273 2.63345e-14 0)
(6.27273 3.07186e-14 0)
(6.27273 3.12987e-14 0)
(6.27273 1.69196e-14 0)
(6.27273 4.8095e-14 0)
(6.27273 7.11956e-14 0)
(6.27273 7.45295e-14 0)
(6.27273 6.52879e-14 0)
(6.27273 2.94435e-14 0)
(6.27273 -5.89769e-15 0)
(6.27273 -2.40675e-14 0)
(6.27273 -1.48159e-14 0)
(6.27273 -6.73116e-15 0)
(6.27273 2.26372e-15 0)
(6.27273 -1.67529e-14 0)
(6.27273 -5.0442e-15 0)
(6.27273 3.63263e-14 0)
(6.27273 4.01203e-14 0)
(6.27273 6.21441e-15 0)
(6.27273 1.64095e-14 0)
(6.27273 3.49194e-14 0)
(6.27273 6.86485e-14 0)
(6.27273 2.49376e-15 0)
(6.27273 -1.28322e-13 0)
(6.27273 -1.82008e-13 0)
(6.27273 -1.46245e-13 0)
(6.27273 -1.04955e-13 0)
(6.27273 -1.09522e-13 0)
(6.27273 -9.59066e-14 0)
(6.27273 -3.75498e-14 0)
(6.27273 -2.8885e-14 0)
(6.27273 -4.79483e-14 0)
(6.27273 -1.27722e-14 0)
(6.27273 9.68301e-14 0)
(6.27273 1.05965e-13 0)
(6.27273 1.00797e-13 0)
(6.27273 3.16521e-14 0)
(6.27273 -2.05035e-15 0)
(6.27273 2.62379e-15 0)
(6.27273 -5.88635e-14 0)
(6.27273 -7.22558e-14 0)
(6.27273 -5.32225e-14 0)
(6.27273 1.26455e-14 0)
(6.27273 8.83386e-14 0)
(6.27273 7.46596e-14 0)
(6.27273 -1.63595e-14 0)
(6.27273 -3.2939e-14 0)
(6.27273 -5.15422e-14 0)
(6.27273 -1.23394e-13 0)
(6.27273 5.26758e-16 0)
(6.27273 1.27355e-14 0)
(6.27273 2.1117e-14 0)
(6.27273 1.63195e-14 0)
(6.27273 -1.10486e-14 0)
(6.27273 -1.84432e-14 0)
(6.27273 -2.12703e-14 0)
(6.27273 -4.69414e-15 0)
(6.27273 -1.47692e-14 0)
(6.27273 -5.69898e-14 0)
(6.27273 -5.18656e-14 0)
(6.27273 -2.17771e-14 0)
(6.27273 3.96969e-14 0)
(6.27273 7.25459e-14 0)
(6.27273 -1.43258e-14 0)
(6.27273 -2.78448e-14 0)
(6.27273 -8.13474e-15 0)
(6.27273 1.53927e-14 0)
(6.27273 2.32307e-14 0)
(6.27273 1.80164e-14 0)
(6.27273 -3.45826e-14 0)
(6.27273 -5.45761e-14 0)
(6.27273 -3.70731e-14 0)
(6.27273 8.08973e-14 0)
(6.27273 1.20017e-13 0)
(6.27273 9.37495e-14 0)
(6.27273 -2.3304e-15 0)
(6.27273 -1.7153e-14 0)
(6.27273 2.06469e-14 0)
(6.27273 4.14505e-14 0)
(6.27273 7.35927e-14 0)
(6.27273 -5.88902e-14 0)
(6.27273 -9.15491e-14 0)
(6.27273 -6.77017e-14 0)
(6.27273 -4.11371e-14 0)
(6.27273 -1.7655e-13 0)
(6.27273 -1.5652e-13 0)
(6.27273 -1.51773e-13 0)
(6.27273 -1.40871e-13 0)
(6.27273 -2.30138e-14 0)
(6.27273 1.02551e-14 0)
(6.27273 4.86451e-14 0)
(6.27273 4.42576e-14 0)
(6.27273 2.84849e-14 0)
(6.27273 8.99822e-15 0)
(6.27273 2.56678e-14 0)
(6.27273 2.25439e-14 0)
(6.27273 -9.14825e-15 0)
(6.27273 -1.13886e-14 0)
(6.27273 -3.10854e-14 0)
(6.27273 -4.94419e-14 0)
(6.27273 -4.35675e-14 0)
(6.27273 -1.22921e-14 0)
(6.27273 4.28641e-14 0)
(6.27273 9.06423e-14 0)
(6.27273 1.1754e-13 0)
(6.27273 1.14836e-13 0)
(6.27273 7.58598e-14 0)
(6.27273 6.21474e-14 0)
(6.27273 4.47711e-14 0)
(6.27273 4.33508e-14 0)
(6.27273 7.3326e-14 0)
(6.27273 8.55948e-14 0)
(6.27273 4.47844e-14 0)
(6.27273 1.48826e-14 0)
(6.27273 -2.82349e-14 0)
(6.27273 -8.63316e-14 0)
(6.27273 -9.99573e-14 0)
(6.27273 -7.59164e-14 0)
(6.27273 4.32708e-14 0)
(6.27273 9.60566e-14 0)
(6.27273 1.24785e-13 0)
(6.27273 3.6883e-14 0)
(6.27273 -1.49559e-14 0)
(6.27273 -4.08737e-14 0)
(6.27273 -2.07703e-14 0)
(6.27273 6.33443e-17 0)
(6.27273 3.77065e-15 0)
(6.27273 3.54728e-15 0)
(6.27273 5.99042e-14 0)
(6.27273 1.48359e-15 0)
(6.27273 -6.14439e-15 0)
(6.27273 -1.88466e-14 0)
(6.27273 -2.1297e-14 0)
(6.27273 -9.54165e-15 0)
(6.27273 -2.91717e-15 0)
(6.27273 1.46125e-14 0)
(6.27273 5.17923e-14 0)
(6.27273 6.89186e-14 0)
(6.27273 7.85769e-14 0)
(6.27273 6.29509e-14 0)
(6.27273 1.3629e-14 0)
(6.27273 -4.20373e-14 0)
(6.27273 -7.56764e-14 0)
(6.27273 -2.42442e-14 0)
(6.27273 4.01136e-14 0)
(6.27273 7.89603e-14 0)
(6.27273 4.97719e-14 0)
(6.27273 -6.93586e-14 0)
(6.27273 -1.09936e-13 0)
(6.27273 -9.62733e-14 0)
(6.27273 -7.83835e-14 0)
(6.27273 -4.13605e-14 0)
(6.27273 -4.12971e-14 0)
(6.27273 -4.15105e-14 0)
(6.27273 -1.74597e-14 0)
(6.27273 5.45428e-15 0)
(6.27273 5.47094e-15 0)
(6.27273 2.98385e-15 0)
(6.27273 2.47976e-14 0)
(6.27273 2.80648e-14 0)
(6.27273 3.39459e-14 0)
(6.27273 1.11726e-13 0)
(6.27273 1.50399e-13 0)
(6.27273 1.93533e-13 0)
(6.27273 2.14604e-13 0)
(6.27273 7.66032e-14 0)
(6.27273 1.98934e-14 0)
(6.27273 -5.26058e-14 0)
(6.27273 -6.05076e-14 0)
(6.27273 -7.51796e-15 0)
(6.27273 -2.21038e-14 0)
(6.27273 -4.59979e-14 0)
(6.27273 -6.01137e-14 0)
(6.27273 -4.31274e-14 0)
(6.27273 -5.14055e-14 0)
(6.27273 -7.22058e-14 0)
(6.27273 -1.40691e-14 0)
(6.27273 4.30274e-14 0)
(6.27273 6.1784e-14 0)
(6.27273 6.52646e-14 0)
(6.27273 4.22473e-14 0)
(6.27273 -9.40496e-15 0)
(6.27273 -5.12222e-14 0)
(6.27273 -3.26523e-14 0)
(6.27273 -2.37741e-14 0)
(6.27273 -1.09352e-14 0)
(6.27273 7.31126e-15 0)
(6.27273 -7.53463e-16 0)
(6.27273 8.92154e-15 0)
(6.27273 7.22125e-14 0)
(6.27273 7.3316e-14 0)
(6.27273 1.59261e-14 0)
(6.27273 4.2374e-15 0)
(6.27273 9.18492e-15 0)
(6.27273 2.06202e-14 0)
(6.27273 2.20738e-14 0)
(6.27273 -3.21889e-14 0)
(6.27273 -2.63712e-14 0)
(6.27273 -2.97251e-14 0)
(6.27273 1.63061e-14 0)
(6.27273 9.02656e-14 0)
(6.27273 3.55095e-14 0)
(6.27273 7.02321e-14 0)
(6.27273 8.55048e-14 0)
(6.27273 3.73565e-14 0)
(6.27273 1.61861e-14 0)
(6.27273 -7.51163e-14 0)
(6.27273 -1.761e-13 0)
(6.27273 1.08408e-14 0)
(6.27273 -8.60149e-16 0)
(6.27273 7.56797e-15 0)
(6.27273 3.34858e-14 0)
(6.27273 2.3004e-14 0)
(6.27273 5.67431e-15 0)
(6.27273 3.98902e-14 0)
(6.27273 2.7098e-14 0)
(6.27273 3.40726e-15 0)
(6.27273 -1.3559e-14 0)
(6.27273 4.53578e-14 0)
(6.27273 5.86668e-14 0)
(6.27273 6.45745e-14 0)
(6.27273 5.91836e-14 0)
(6.27273 1.21921e-14 0)
(6.27273 -4.53412e-16 0)
(6.27273 8.80152e-16 0)
(6.27273 -9.17492e-15 0)
(6.27273 5.27925e-14 0)
(6.27273 1.00624e-13 0)
(6.27273 8.82986e-14 0)
(6.27273 5.01353e-14 0)
(6.27273 1.22821e-14 0)
(6.27273 -2.48776e-14 0)
(6.27273 -5.31425e-15 0)
(6.27273 -1.84832e-14 0)
(6.27273 -2.13704e-14 0)
(6.27273 -2.81349e-14 0)
(6.27273 1.32956e-14 0)
(6.27273 2.22238e-14 0)
(6.27273 1.70396e-14 0)
(6.27273 1.89033e-15 0)
(6.27273 -4.75916e-14 0)
(6.27273 -7.20491e-14 0)
(6.27273 -8.08773e-14 0)
(6.27273 -7.85502e-14 0)
(6.27273 -1.13653e-13 0)
(6.27273 -1.02998e-13 0)
(6.27273 -9.93238e-14 0)
(6.27273 -8.16208e-14 0)
(6.27273 -7.21334e-14 0)
(6.27273 -7.10789e-15 0)
(6.27273 -2.81715e-15 0)
(6.27273 -7.03455e-16 0)
(6.27273 2.50043e-15 0)
(6.27273 1.10352e-15 0)
(6.27273 9.48497e-15 0)
(6.27273 2.97818e-14 0)
(6.27273 9.82503e-15 0)
(6.27273 -2.23005e-14 0)
(6.27273 -5.35526e-14 0)
(6.27273 -7.72733e-14 0)
(6.27273 -7.78301e-14 0)
(6.27273 -7.24492e-14 0)
(6.27273 -5.71632e-14 0)
(6.27273 2.4991e-14 0)
(6.27273 3.12054e-14 0)
(6.27273 2.99818e-14 0)
(6.27273 -2.51777e-14 0)
(6.27273 -4.15072e-14 0)
(6.27273 -6.63848e-14 0)
(6.27273 -1.30549e-13 0)
(6.27273 -1.42528e-13 0)
(6.27273 -1.02568e-13 0)
(6.27273 -5.29025e-14 0)
(6.27273 -3.13154e-14 0)
(6.27273 -3.56695e-14 0)
(6.27273 2.02635e-14 0)
(6.27273 6.17307e-14 0)
(6.27273 7.23592e-14 0)
(6.27273 5.90502e-14 0)
(6.27273 -6.41844e-14 0)
(6.27273 -1.55083e-13 0)
(6.27273 -1.26692e-13 0)
(6.27273 -9.02289e-14 0)
(6.27273 -1.35887e-13 0)
(6.27273 -1.82588e-13 0)
(6.27273 -1.82762e-13 0)
(6.27273 -1.22261e-13 0)
(6.27273 -7.93337e-14 0)
(6.27273 -8.41368e-14 0)
(6.27273 6.60114e-16 0)
(6.27273 -1.3389e-14 0)
(6.27273 -3.41659e-14 0)
(6.27273 -4.02169e-14 0)
(6.27273 -1.30623e-14 0)
(6.27273 -3.33558e-14 0)
(6.27273 -3.79332e-14 0)
(6.27273 -6.28142e-14 0)
(6.27273 -9.01689e-14 0)
(6.27273 -1.01034e-13 0)
(6.27273 -8.59482e-14 0)
(6.27273 -8.60582e-14 0)
(6.27273 -1.20087e-13 0)
(6.27273 -1.02198e-13 0)
(6.27273 -2.10936e-14 0)
(6.27273 -1.59161e-14 0)
(6.27273 -6.18573e-14 0)
(6.27273 -8.57715e-14 0)
(6.27273 -9.19959e-14 0)
(6.27273 -5.53029e-14 0)
(6.27273 6.06438e-15 0)
(6.27273 2.6838e-14 0)
(6.27273 5.30558e-14 0)
(6.27273 3.98736e-14 0)
(6.27273 3.22289e-14 0)
(6.27273 2.5341e-14 0)
(6.27273 4.44477e-14 0)
(6.27273 3.75431e-14 0)
(6.27273 -2.24472e-14 0)
(6.27273 -5.27024e-14 0)
(6.27273 -5.30358e-14 0)
(6.27273 -8.11974e-14 0)
(6.27273 -9.18792e-14 0)
(6.27273 -1.33616e-13 0)
(6.27273 -1.67476e-13 0)
(6.27273 -1.47732e-13 0)
(6.27273 -1.21604e-13 0)
(6.27273 -1.25422e-13 0)
(6.27273 -8.00672e-14 0)
(6.27273 6.36097e-14 0)
(6.27273 2.27106e-14 0)
(6.27273 1.75997e-14 0)
(6.27273 2.02202e-14 0)
(6.27273 2.42809e-14 0)
(6.27273 2.64246e-14 0)
(6.27273 3.81666e-14 0)
(6.27273 1.45725e-14 0)
(6.27273 -5.24991e-14 0)
(6.27273 -6.34243e-14 0)
(6.27273 -5.33492e-14 0)
(6.27273 -3.55595e-14 0)
(6.27273 -2.86249e-14 0)
(6.27273 2.05936e-14 0)
(6.27273 2.00435e-14 0)
(6.27273 -9.14158e-15 0)
(6.27273 -9.92171e-15 0)
(6.27273 8.8982e-15 0)
(6.27273 2.19105e-14 0)
(6.27273 -9.90171e-16 0)
(6.27273 1.04351e-14 0)
(6.27273 1.02784e-14 0)
(6.27273 5.60097e-16 0)
(6.27273 2.81715e-15 0)
(6.27273 -4.61946e-14 0)
(6.27273 -5.26191e-14 0)
(6.27273 -3.90334e-14 0)
(6.27273 -2.24439e-14 0)
(6.27273 -1.30182e-13 0)
(6.27273 -1.63328e-13 0)
(6.27273 -1.68442e-13 0)
(6.27273 -1.51059e-13 0)
(6.27273 -1.86229e-13 0)
(6.27273 -2.32117e-13 0)
(6.27273 -2.25616e-13 0)
(6.27273 -2.24709e-13 0)
(6.27273 -1.67949e-13 0)
(6.27273 -7.21291e-14 0)
(6.27273 -2.75881e-14 0)
(6.27273 1.86766e-14 0)
(6.27273 5.22816e-14 0)
(6.27273 -1.10952e-14 0)
(6.27273 -8.30143e-15 0)
(6.27273 6.5578e-15 0)
(6.27273 2.5161e-14 0)
(6.27273 1.77831e-14 0)
(6.27273 3.14221e-14 0)
(6.27273 6.1764e-14 0)
(6.27273 9.90738e-14 0)
(6.27273 1.06968e-13 0)
(6.27273 7.61398e-14 0)
(6.27273 2.27906e-14 0)
(6.27273 2.58911e-14 0)
(6.27273 4.67214e-14 0)
(6.27273 6.79717e-14 0)
(6.27273 2.40708e-14 0)
(6.27273 1.01684e-14 0)
(6.27273 2.58211e-14 0)
(6.27273 5.71432e-14 0)
(6.27273 6.67249e-14 0)
(6.27273 8.5158e-14 0)
(6.27273 7.92804e-14 0)
(6.27273 7.48963e-14 0)
(6.27273 2.85916e-14 0)
(6.27273 -6.07838e-14 0)
(6.27273 -6.47478e-14 0)
(6.27273 -7.60531e-14 0)
(6.27273 -9.37362e-14 0)
(6.27273 -8.74818e-14 0)
(6.27273 -9.23693e-14 0)
(6.27273 -7.29893e-14 0)
(6.27273 -5.10922e-14 0)
(6.27273 -5.65931e-14 0)
(6.27273 -6.65315e-14 0)
(6.27273 -9.41529e-14 0)
(6.27273 -1.44415e-13 0)
(6.27273 -1.959e-13 0)
(6.27273 -1.40201e-13 0)
(6.27273 6.43078e-14 0)
(6.27273 9.67134e-14 0)
(6.27273 7.33151e-14 0)
(6.27273 -1.60961e-14 0)
(6.27273 -9.82836e-15 0)
(6.27273 1.22788e-14 0)
(6.27273 3.15621e-14 0)
(6.27273 4.8515e-14 0)
(6.27273 4.10604e-14 0)
(6.27273 7.02688e-14 0)
(6.27273 1.50296e-13 0)
(6.27273 1.53263e-13 0)
(6.27273 1.32256e-13 0)
(6.27273 9.53465e-14 0)
(6.27273 1.06585e-13 0)
(6.27273 9.02289e-14 0)
(6.27273 4.12138e-14 0)
(6.27273 -1.37357e-15 0)
(6.27273 -1.39224e-14 0)
(6.27273 -2.32907e-14 0)
(6.27273 5.08421e-15 0)
(6.27273 3.01419e-14 0)
(6.27273 3.17088e-14 0)
(6.27273 9.27494e-15 0)
(6.27273 1.50493e-14 0)
(6.27273 1.98034e-15 0)
(6.27273 -1.83265e-14 0)
(6.27273 -2.98118e-14 0)
(6.27273 -1.96367e-15 0)
(6.27273 -8.90821e-15 0)
(6.27273 -3.92901e-14 0)
(6.27273 -4.41443e-14 0)
(6.27273 5.9577e-14 0)
(6.27273 1.38981e-13 0)
(6.27273 1.44832e-13 0)
(6.27273 1.30806e-13 0)
(6.27273 7.85702e-14 0)
(6.27273 -4.42643e-14 0)
(6.27273 -7.44595e-14 0)
(6.27273 -9.05356e-14 0)
(6.27273 -3.02219e-14 0)
(6.27273 6.79984e-14 0)
(6.27273 2.38101e-13 0)
(6.27273 6.3511e-15 0)
(6.27273 -7.36794e-15 0)
(6.27273 -4.98753e-15 0)
(6.27273 4.86417e-15 0)
(6.27273 3.02119e-14 0)
(6.27273 4.16105e-14 0)
(6.27273 1.80298e-14 0)
(6.27273 -9.89504e-15 0)
(6.27273 -4.82817e-14 0)
(6.27273 -4.18439e-14 0)
(6.27273 -7.41128e-15 0)
(6.27273 2.70713e-15 0)
(6.27273 3.04019e-14 0)
(6.27273 2.10236e-14 0)
(6.27273 3.31791e-14 0)
(6.27273 8.51714e-14 0)
(6.27273 1.12476e-13 0)
(6.27273 1.28252e-13 0)
(6.27273 1.24121e-13 0)
(6.27273 1.36073e-13 0)
(6.27273 1.44168e-13 0)
(6.27273 1.54647e-13 0)
(6.27273 1.70063e-13 0)
(6.27273 1.10196e-13 0)
(6.27273 7.94437e-14 0)
(6.27273 5.67331e-14 0)
(6.27273 4.39376e-14 0)
(6.27273 4.34375e-14 0)
(6.27273 7.51496e-14 0)
(6.27273 1.19877e-13 0)
(6.27273 1.29246e-13 0)
(6.27273 1.22108e-13 0)
(6.27273 1.06778e-13 0)
(6.27273 1.11049e-13 0)
(6.27273 2.16251e-13 0)
(6.27273 2.303e-13 0)
(6.27273 1.76947e-13 0)
(6.27273 1.04931e-13 0)
(6.27273 1.59127e-13 0)
(6.27273 8.4054e-14 0)
(6.27273 1.1672e-14 0)
(6.27273 5.33425e-15 0)
(6.27273 -2.65713e-15 0)
(6.27273 -8.22475e-15 0)
(6.27273 -1.1412e-14 0)
(6.27273 -3.41926e-14 0)
(6.27273 -3.42026e-14 0)
(6.27273 -6.91753e-14 0)
(6.27273 -1.00651e-13 0)
(6.27273 -9.27827e-14 0)
(6.27273 -9.00155e-14 0)
(6.27273 -9.13291e-14 0)
(6.27273 -6.02437e-14 0)
(6.27273 -3.21656e-14 0)
(6.27273 3.04319e-14 0)
(6.27273 1.14403e-13 0)
(6.27273 1.20307e-13 0)
(6.27273 1.06345e-13 0)
(6.27273 1.12119e-13 0)
(6.27273 7.43628e-14 0)
(6.27273 5.88202e-14 0)
(6.27273 6.26742e-14 0)
(6.27273 1.06735e-13 0)
(6.27273 1.57724e-13 0)
(6.27273 1.42048e-13 0)
(6.27273 1.44362e-13 0)
(6.27273 1.57401e-13 0)
(6.27273 1.61851e-13 0)
(6.27273 1.60514e-13 0)
(6.27273 1.3447e-13 0)
(6.27273 2.8785e-14 0)
(6.27273 4.55979e-14 0)
(6.27273 2.01198e-13 0)
(6.27273 2.45296e-13 0)
(6.27273 2.30266e-13 0)
(6.27273 1.66279e-13 0)
(6.27273 1.27955e-13 0)
(6.27273 1.37884e-13 0)
(6.27273 1.28422e-13 0)
(6.27273 7.24224e-14 0)
(6.27273 -8.50147e-15 0)
(6.27273 1.28089e-14 0)
(6.27273 1.66762e-14 0)
(6.27273 -1.62728e-14 0)
(6.27273 -5.95436e-14 0)
(6.27273 -5.66531e-14 0)
(6.27273 -3.62529e-14 0)
(6.27273 -4.10037e-14 0)
(6.27273 -5.1969e-14 0)
(6.27273 -8.97755e-14 0)
(6.27273 -9.17692e-14 0)
(6.27273 -8.34844e-14 0)
(6.27273 -8.83619e-14 0)
(6.27273 -6.49612e-14 0)
(6.27273 -9.47497e-15 0)
(6.27273 8.33477e-16 0)
(6.27273 -2.56444e-14 0)
(6.27273 -1.32723e-14 0)
(6.27273 -1.29356e-15 0)
(6.27273 -7.88103e-14 0)
(6.27273 -1.02311e-13 0)
(6.27273 -1.35937e-13 0)
(6.27273 -7.82769e-14 0)
(6.27273 1.80531e-14 0)
(6.27273 6.78584e-14 0)
(6.27273 2.09436e-13 0)
(6.27273 2.40518e-13 0)
(6.27273 2.49173e-13 0)
(6.27273 2.38945e-13 0)
(6.27273 1.50986e-13 0)
(6.27273 1.24205e-13 0)
(6.27273 1.70789e-13 0)
(6.27273 2.01905e-13 0)
(6.27273 1.94467e-13 0)
(6.27273 1.87169e-13 0)
(6.27273 1.1631e-13 0)
(6.27273 4.4591e-14 0)
(6.27273 4.75249e-14 0)
(6.27273 3.67463e-14 0)
(6.27273 3.27644e-14 0)
(6.27273 2.00035e-17 0)
(6.27273 6.20107e-15 0)
(6.27273 -6.28442e-15 0)
(6.27273 -4.4201e-14 0)
(6.27273 -8.19241e-14 0)
(6.27273 -7.36227e-14 0)
(6.27273 -1.5256e-14 0)
(6.27273 9.31494e-15 0)
(6.27273 3.75131e-14 0)
(6.27273 4.90351e-14 0)
(6.27273 3.62496e-14 0)
(6.27273 -5.15422e-15 0)
(6.27273 -4.89785e-14 0)
(6.27273 -1.923e-14 0)
(6.27273 -4.79416e-15 0)
(6.27273 -3.32191e-14 0)
(6.27273 -3.34191e-14 0)
(6.27273 9.90171e-15 0)
(6.27273 3.50394e-14 0)
(6.27273 3.45593e-14 0)
(6.27273 3.01519e-14 0)
(6.27273 4.25107e-14 0)
(6.27273 4.93819e-14 0)
(6.27273 3.53328e-14 0)
(6.27273 5.68365e-14 0)
(6.27273 1.15193e-13 0)
(6.27273 1.17767e-13 0)
(6.27273 1.21961e-13 0)
(6.27273 1.1795e-13 0)
(6.27273 9.97272e-14 0)
(6.27273 1.06355e-13 0)
(6.27273 1.11553e-13 0)
(6.27273 9.66834e-14 0)
(6.27273 9.43096e-14 0)
(6.27273 1.12223e-13 0)
(6.27273 1.26442e-13 0)
(6.27273 7.78968e-14 0)
(6.27273 7.23392e-14 0)
(6.27273 3.56428e-14 0)
(6.27273 -6.81574e-15 0)
(6.27273 6.15773e-15 0)
(6.27273 -7.10123e-15 0)
(6.27273 -2.37608e-14 0)
(6.27273 -2.72714e-15 0)
(6.27273 -6.21441e-15 0)
(6.27273 -2.07469e-14 0)
(6.27273 -3.75698e-14 0)
(6.27273 2.93217e-14 0)
(6.27273 7.08522e-14 0)
(6.27273 1.08582e-13 0)
(6.27273 8.8722e-14 0)
(6.27273 -2.17938e-14 0)
(6.27273 -3.80799e-14 0)
(6.27273 -4.94752e-14 0)
(6.27273 -5.47495e-14 0)
(6.27273 -6.01804e-14 0)
(6.27273 -5.31959e-14 0)
(6.27273 -5.43861e-14 0)
(6.27273 -4.46277e-14 0)
(6.27273 -3.2829e-14 0)
(6.27273 -1.86932e-14 0)
(6.27273 3.02852e-14 0)
(6.27273 5.0342e-14 0)
(6.27273 3.61396e-15 0)
(6.27273 -4.16605e-14 0)
(6.27273 -8.47846e-14 0)
(6.27273 -2.04769e-14 0)
(6.27273 2.55377e-15 0)
(6.27273 1.10419e-14 0)
(6.27273 5.97136e-14 0)
(6.27273 1.27602e-13 0)
(6.27273 1.20841e-13 0)
(6.27273 1.11843e-13 0)
(6.27273 1.06485e-13 0)
(6.27273 7.28392e-14 0)
(6.27273 3.94635e-14 0)
(6.27273 2.53644e-14 0)
(6.27273 -2.8905e-15 0)
(6.27273 -5.41527e-14 0)
(6.27273 -1.27641e-13 0)
(6.27273 -7.63465e-15 0)
(6.27273 -2.94851e-14 0)
(6.27273 -1.76964e-14 0)
(6.27273 2.55077e-14 0)
(6.27273 5.82267e-14 0)
(6.27273 3.94368e-14 0)
(6.27273 2.7218e-14 0)
(6.27273 3.4686e-14 0)
(6.27273 6.17773e-14 0)
(6.27273 6.22407e-14 0)
(6.27273 6.49579e-14 0)
(6.27273 3.26356e-14 0)
(6.27273 -5.98903e-14 0)
(6.27273 -7.98838e-14 0)
(6.27273 -8.26743e-14 0)
(6.27273 -5.5813e-14 0)
(6.27273 -5.14189e-14 0)
(6.27273 -9.68501e-14 0)
(6.27273 -1.42451e-13 0)
(6.27273 -1.53086e-13 0)
(6.27273 -1.19291e-13 0)
(6.27273 -1.1479e-13 0)
(6.27273 -1.11323e-13 0)
(6.27273 -4.72348e-14 0)
(6.27273 -3.09487e-14 0)
(6.27273 -5.84868e-14 0)
(6.27273 -8.73551e-14 0)
(6.27273 -3.43659e-14 0)
(6.27273 1.85532e-14 0)
(6.27273 1.67162e-14 0)
(6.27273 1.31723e-14 0)
(6.27273 1.42591e-14 0)
(6.27273 -3.23256e-14 0)
(6.27273 -1.09015e-13 0)
(6.27273 -9.02356e-14 0)
(6.27273 -1.64295e-14 0)
(6.27273 -4.70415e-15 0)
(6.27273 -2.76948e-14 0)
(6.27273 -1.3579e-14 0)
(6.27273 7.41017e-15 0)
(6.27273 -4.38742e-15 0)
(6.27273 7.54797e-15 0)
(6.27273 2.53844e-14 0)
(6.27273 5.46594e-14 0)
(6.27273 1.04591e-13 0)
(6.27273 1.19797e-13 0)
(6.27273 1.22795e-13 0)
(6.27273 9.67067e-14 0)
(6.27273 8.97388e-14 0)
(6.27273 6.30175e-14 0)
(6.27273 7.1699e-14 0)
(6.27273 8.45113e-14 0)
(6.27273 -5.75766e-15 0)
(6.27273 -3.48293e-14 0)
(6.27273 -1.98868e-14 0)
(6.27273 2.03502e-14 0)
(6.27273 7.82168e-14 0)
(6.27273 5.98637e-14 0)
(6.27273 4.94652e-14 0)
(6.27273 2.19871e-14 0)
(6.27273 -5.26158e-14 0)
(6.27273 -7.9357e-14 0)
(6.27273 -4.86051e-14 0)
(6.27273 3.64363e-14 0)
(6.27273 1.10456e-13 0)
(6.27273 1.46102e-13 0)
(6.27273 1.11756e-13 0)
(6.27273 -9.95172e-15 0)
(6.27273 -8.33244e-14 0)
(6.27273 -6.47812e-14 0)
(6.27273 -8.35144e-15 0)
(6.27273 7.35927e-14 0)
(6.27273 7.95504e-14 0)
(6.27273 3.58362e-14 0)
(6.27273 4.85917e-14 0)
(6.27273 5.40027e-14 0)
(6.27273 6.70116e-14 0)
(6.27273 3.99136e-14 0)
(6.27273 9.12458e-14 0)
(6.27273 1.26886e-13 0)
(6.27273 4.59413e-15 0)
(6.27273 1.76664e-14 0)
(6.27273 3.3039e-15 0)
(6.27273 -3.83733e-15 0)
(6.27273 -2.76614e-14 0)
(6.27273 -3.21689e-14 0)
(6.27273 -3.17321e-14 0)
(6.27273 -3.71131e-14 0)
(6.27273 -8.40045e-14 0)
(6.27273 -1.01898e-13 0)
(6.27273 -6.78851e-14 0)
(6.27273 -2.13504e-14 0)
(6.27273 -1.24021e-15 0)
(6.27273 -4.71081e-15 0)
(6.27273 -6.90119e-15 0)
(6.27273 -1.92233e-14 0)
(6.27273 2.78648e-14 0)
(6.27273 5.35026e-14 0)
(6.27273 6.86585e-14 0)
(6.27273 5.77233e-14 0)
(6.27273 5.49828e-14 0)
(6.27273 5.12555e-14 0)
(6.27273 4.49378e-14 0)
(6.27273 4.18272e-14 0)
(6.27273 4.71615e-14 0)
(6.27273 7.86136e-14 0)
(6.27273 7.54797e-14 0)
(6.27273 1.19354e-15 0)
(6.27273 -4.16072e-14 0)
(6.27273 -1.38791e-14 0)
(6.27273 2.62679e-14 0)
(6.27273 4.04703e-14 0)
(6.27273 6.77517e-14 0)
(6.27273 2.77315e-14 0)
(6.27273 1.38191e-14 0)
(6.27273 -4.58746e-15 0)
(6.27273 -1.95767e-14 0)
(6.27273 3.6773e-15 0)
(6.27273 5.14389e-14 0)
(6.27273 5.08779e-14 0)
(6.27273 4.86751e-16 0)
(6.27273 2.7238e-15 0)
(6.27273 -1.51826e-14 0)
(6.27273 -6.18373e-14 0)
(6.27273 -8.63949e-14 0)
(6.27273 -1.14426e-13 0)
(6.27273 -1.57554e-13 0)
(6.27273 -1.68072e-13 0)
(6.27273 -1.77824e-13 0)
(6.27273 -8.62782e-14 0)
(6.27273 -4.02236e-14 0)
(6.27273 1.43125e-14 0)
(6.27273 7.19724e-14 0)
(6.27273 1.15487e-13 0)
(6.27273 8.35844e-14 0)
(6.27273 2.20205e-14 0)
(6.27273 -1.22821e-14 0)
(6.27273 -2.27473e-14 0)
(6.27273 -4.12004e-14 0)
(6.27273 -3.6843e-14 0)
(6.27273 1.42658e-14 0)
(6.27273 9.89538e-14 0)
(6.27273 4.44843e-14 0)
(6.27273 -6.09239e-14 0)
(6.27273 -6.62648e-14 0)
(6.27273 -5.50928e-14 0)
(6.27273 -1.67962e-14 0)
(6.27273 1.00817e-14 0)
(6.27273 1.88366e-15 0)
(6.27273 -7.701e-14 0)
(6.27273 -1.33433e-13 0)
(6.27273 -1.24918e-13 0)
(6.27273 -4.87217e-14 0)
(6.27273 8.56148e-15 0)
(6.27273 -6.66782e-16 0)
(6.27273 3.864e-15 0)
(6.27273 1.1522e-14 0)
(6.27273 -2.81715e-14 0)
(6.27273 -7.07656e-14 0)
(6.27273 -7.17833e-14 0)
(6.27273 -4.19406e-15 0)
(6.27273 -2.21272e-14 0)
(6.27273 -1.03518e-14 0)
(6.27273 4.13405e-16 0)
(6.27273 -1.63395e-14 0)
(6.27273 -3.04586e-14 0)
(6.27273 -5.43761e-14 0)
(6.27273 -7.20124e-14 0)
(6.27273 -5.90902e-14 0)
(6.27273 -6.50112e-15 0)
(6.27273 2.43575e-14 0)
(6.27273 8.30243e-14 0)
(6.27273 1.7308e-13 0)
(6.27273 1.89216e-13 0)
(6.27273 1.40794e-13 0)
(6.27273 1.05151e-13 0)
(6.27273 7.03121e-14 0)
(6.27273 -3.74865e-14 0)
(6.27273 -1.05141e-13 0)
(6.27273 -7.28526e-14 0)
(6.27273 -2.17371e-14 0)
(6.27273 -1.27989e-14 0)
(6.27273 8.0914e-15 0)
(6.27273 2.21738e-14 0)
(6.27273 3.11054e-15 0)
(6.27273 -1.67929e-14 0)
(6.27273 -3.57762e-14 0)
(6.27273 -4.74182e-14 0)
(6.27273 -1.20654e-13 0)
(6.27273 -1.41911e-13 0)
(6.27273 -1.71673e-13 0)
(6.27273 -2.05315e-13 0)
(6.27273 -1.10202e-13 0)
(6.27273 2.59645e-14 0)
(6.27273 1.29746e-13 0)
(6.27273 1.7594e-13 0)
(6.27273 1.64835e-13 0)
(6.27273 4.92118e-14 0)
(6.27273 -8.94521e-14 0)
(6.27273 -1.04929e-13 0)
(6.27273 5.36093e-15 0)
(6.27273 6.66782e-17 0)
(6.27273 2.12903e-14 0)
(6.27273 4.53212e-14 0)
(6.27273 2.39541e-14 0)
(6.27273 4.19639e-14 0)
(6.27273 7.21758e-14 0)
(6.27273 5.64131e-14 0)
(6.27273 2.5291e-14 0)
(6.27273 1.92667e-14 0)
(6.27273 1.10252e-14 0)
(6.27273 5.3916e-14 0)
(6.27273 8.82652e-14 0)
(6.27273 9.58232e-14 0)
(6.27273 1.11666e-13 0)
(6.27273 1.12276e-13 0)
(6.27273 5.92969e-14 0)
(6.27273 1.43925e-14 0)
(6.27273 1.40358e-15 0)
(6.27273 8.75151e-15 0)
(6.27273 -1.60028e-16 0)
(6.27273 -2.62312e-14 0)
(6.27273 -3.41559e-14 0)
(6.27273 6.07305e-14 0)
(6.27273 8.18108e-14 0)
(6.27273 5.47128e-14 0)
(6.27273 -3.52328e-14 0)
(6.27273 -8.3101e-14 0)
(6.27273 -8.78918e-14 0)
(6.27273 -6.46145e-14 0)
(6.27273 -8.85653e-14 0)
(6.27273 -1.03261e-13 0)
(6.27273 -1.46419e-13 0)
(6.27273 -1.70713e-13 0)
(6.27273 -8.58282e-14 0)
(6.27273 3.33891e-14 0)
(6.27273 6.39377e-14 0)
(6.27273 6.81118e-14 0)
(6.27273 6.7535e-14 0)
(6.27273 3.12373e-14 0)
(6.27273 3.88067e-15 0)
(6.27273 4.50745e-14 0)
(6.27273 5.23457e-14 0)
(6.27273 6.14739e-14 0)
(6.27273 8.74318e-14 0)
(6.27273 9.36628e-14 0)
(6.27273 6.3521e-14 0)
(6.27273 5.69265e-14 0)
(6.27273 2.27106e-14 0)
(6.27273 8.60815e-15 0)
(6.27273 -5.46428e-15 0)
(6.27273 -2.96951e-14 0)
(6.27273 -1.15407e-13 0)
(6.27273 -1.16443e-13 0)
(6.27273 -8.00305e-14 0)
(6.27273 -6.45878e-14 0)
(6.27273 -6.52179e-14 0)
(6.27273 -5.75999e-14 0)
(6.27273 -4.78749e-14 0)
(6.27273 -4.98053e-14 0)
(6.27273 -6.64148e-14 0)
(6.27273 -8.04639e-14 0)
(6.27273 -6.37743e-14 0)
(6.27273 -4.19539e-14 0)
(6.27273 -2.37241e-14 0)
(6.27273 -2.5041e-14 0)
(6.27273 1.7593e-14 0)
(6.27273 2.02668e-14 0)
(6.27273 2.87983e-14 0)
(6.27273 4.28874e-14 0)
(6.27273 6.46078e-14 0)
(6.27273 5.44861e-14 0)
(6.27273 4.64547e-14 0)
(6.27273 -4.32608e-14 0)
(6.27273 -1.16954e-13 0)
(6.27273 -1.13533e-13 0)
(6.27273 -9.665e-15 0)
(6.27273 7.90803e-14 0)
(6.27273 9.06623e-14 0)
(6.27273 1.00637e-13 0)
(6.27273 -1.12586e-14 0)
(6.27273 -4.74082e-15 0)
(6.27273 -3.53728e-15 0)
(6.27273 -1.39324e-14 0)
(6.27273 -4.33408e-15 0)
(6.27273 -1.85832e-14 0)
(6.27273 -3.88967e-14 0)
(6.27273 -2.12003e-14 0)
(6.27273 4.99753e-15 0)
(6.27273 -5.35759e-15 0)
(6.27273 -7.1379e-15 0)
(6.27273 -4.6438e-14 0)
(6.27273 -1.02764e-13 0)
(6.27273 -1.88109e-13 0)
(6.27273 -1.98858e-13 0)
(6.27273 -2.15224e-13 0)
(6.27273 -1.28392e-13 0)
(6.27273 -9.74968e-14 0)
(6.27273 -9.34428e-14 0)
(6.27273 -8.30577e-14 0)
(6.27273 -8.94488e-14 0)
(6.27273 -8.58115e-14 0)
(6.27273 -6.94853e-14 0)
(6.27273 -4.53945e-14 0)
(6.27273 -6.62781e-15 0)
(6.27273 6.60047e-14 0)
(6.27273 1.89606e-13 0)
(6.27273 2.15911e-13 0)
(6.27273 2.08363e-13 0)
(6.27273 1.48796e-13 0)
(6.27273 -9.51498e-15 0)
(6.27273 -2.13304e-14 0)
(6.27273 -3.52528e-14 0)
(6.27273 -1.23845e-13 0)
(6.27273 -1.77784e-13 0)
(6.27273 -2.03458e-13 0)
(6.27273 -1.99751e-13 0)
(6.27273 -1.59691e-13 0)
(6.27273 -1.28479e-13 0)
(6.27273 -2.74261e-15 0)
(6.27273 -2.73381e-15 0)
(6.27273 -3.33591e-14 0)
(6.27273 -5.84768e-14 0)
(6.27273 -7.41161e-14 0)
(6.27273 -1.06688e-13 0)
(6.27273 -1.09379e-13 0)
(6.27273 -8.72451e-14 0)
(6.27273 -3.95068e-14 0)
(6.27273 -3.21389e-15 0)
(6.27273 -5.10421e-15 0)
(6.27273 -4.67081e-15 0)
(6.27273 -7.02455e-15 0)
(6.27273 -3.56595e-14 0)
(6.27273 -1.04451e-13 0)
(6.27273 -8.65449e-14 0)
(6.27273 -9.26293e-14 0)
(6.27273 -7.99505e-14 0)
(6.27273 -4.82183e-14 0)
(6.27273 -1.40358e-15 0)
(6.27273 5.56829e-14 0)
(6.27273 2.39141e-14 0)
(6.27273 3.88634e-14 0)
(6.27273 -4.27407e-15 0)
(6.27273 -8.74484e-15 0)
(6.27273 1.82632e-14 0)
(6.27273 8.52847e-14 0)
(6.27273 8.62982e-14 0)
(6.27273 7.60065e-14 0)
(6.27273 6.7415e-14 0)
(6.27273 5.72766e-15 0)
(6.27273 -1.44978e-13 0)
(6.27273 -1.56054e-13 0)
(6.27273 -1.29052e-13 0)
(6.27273 -1.85455e-13 0)
(6.27273 -1.7235e-13 0)
(6.27273 -1.758e-13 0)
(6.27273 -1.85275e-13 0)
(6.27273 -1.51413e-13 0)
(6.27273 -1.30199e-13 0)
(6.27273 -7.36902e-14 0)
(6.27273 2.31707e-15 0)
(6.27273 1.58961e-14 0)
(6.27273 2.90717e-14 0)
(6.27273 3.31124e-14 0)
(6.27273 6.20107e-15 0)
(6.27273 1.97067e-14 0)
(6.27273 2.59611e-14 0)
(6.27273 1.35523e-14 0)
(6.27273 3.27557e-14 0)
(6.27273 3.19388e-14 0)
(6.27273 1.31989e-14 0)
(6.27273 -5.16423e-15 0)
(6.27273 1.03785e-14 0)
(6.27273 3.23856e-14 0)
(6.27273 4.78316e-14 0)
(6.27273 5.08688e-14 0)
(6.27273 2.69747e-14 0)
(6.27273 8.6615e-15 0)
(6.27273 -2.1457e-14 0)
(6.27273 -3.66697e-14 0)
(6.27273 -2.49176e-14 0)
(6.27273 2.13504e-14 0)
(6.27273 3.32624e-14 0)
(6.27273 8.71484e-15 0)
(6.27273 -3.14854e-14 0)
(6.27273 -8.03105e-14 0)
(6.27273 -1.27285e-13 0)
(6.27273 -1.66162e-13 0)
(6.27273 -1.81768e-13 0)
(6.27273 -1.7502e-13 0)
(6.27273 -2.02318e-13 0)
(6.27273 -2.11653e-13 0)
(6.27273 -5.72366e-14 0)
(6.27273 -3.04853e-14 0)
(6.27273 -6.03771e-15 0)
(6.27273 -3.10054e-16 0)
(6.27273 -7.23458e-16 0)
(6.27273 -1.40258e-14 0)
(6.27273 -1.26589e-14 0)
(6.27273 -1.62497e-13 0)
(6.27273 5.771e-15 0)
(6.27273 2.69813e-14 0)
(6.27273 4.33208e-14 0)
(6.27273 3.71831e-14 0)
(6.27273 5.28358e-14 0)
(6.27273 6.92653e-14 0)
(6.27273 9.0879e-14 0)
(6.27273 6.78651e-14 0)
(6.27273 2.40175e-14 0)
(6.27273 1.11853e-14 0)
(6.27273 -1.59227e-14 0)
(6.27273 -9.02823e-15 0)
(6.27273 2.36908e-14 0)
(6.27273 6.00804e-14 0)
(6.27273 6.62781e-14 0)
(6.27273 9.40029e-14 0)
(6.27273 9.70668e-14 0)
(6.27273 7.14123e-14 0)
(6.27273 -7.728e-15 0)
(6.27273 -6.31576e-14 0)
(6.27273 -2.08536e-14 0)
(6.27273 1.77331e-14 0)
(6.27273 8.07306e-14 0)
(6.27273 8.27576e-14 0)
(6.27273 2.3234e-14 0)
(6.27273 -2.56944e-14 0)
(6.27273 -1.38777e-13 0)
(6.27273 -1.76554e-13 0)
(6.27273 -2.00048e-13 0)
(6.27273 -2.33414e-13 0)
(6.27273 -2.45969e-13 0)
(6.27273 -2.08429e-13 0)
(6.27273 -6.84852e-14 0)