/*--------------------------------*- C++ -*----------------------------------*\
| =========                 |                                                 |
| \\      /  F ield         | OpenFOAM: The Open Source CFD Toolbox           |
|  \\    /   O peration     | Version:  2206                                  |
|   \\  /    A nd           | Website:  www.openfoam.com                      |
|    \\/     M anipulation  |                                                 |
\*---------------------------------------------------------------------------*/
FoamFile
{
    version     2.0;
    format      ascii;
    arch        "LSB;label=32;scalar=64";
    class       volVectorField;
    location    "0.02";
    object      U;
}
// * * * * * * * * * * * * * * * * * * * * * * * * * * * * * * * * * * * * * //

dimensions      [0 1 -1 0 0 0 0];

internalField   nonuniform List<vector> 
75
(
(3.52525 -5.30675e-15 0)
(3.52525 -4.78624e-15 0)
(3.52525 2.73964e-15 0)
(3.52525 2.95801e-15 0)
(3.52525 1.84615e-15 0)
(3.52525 -4.57996e-16 0)
(3.52525 -6.54321e-15 0)
(3.52525 -4.95711e-15 0)
(3.52525 -2.57419e-15 0)
(3.52525 -1.42563e-16 0)
(3.52525 -5.308e-15 0)
(3.52525 -4.00778e-15 0)
(3.52525 -6.83826e-15 0)
(3.52525 -4.64539e-15 0)
(3.52525 4.3505e-15 0)
(3.52525 -4.81291e-15 0)
(3.52525 9.16825e-18 0)
(3.52525 5.79933e-15 0)
(3.52525 1.07577e-14 0)
(3.52525 1.26253e-14 0)
(3.52525 4.81625e-15 0)
(3.52525 3.60771e-15 0)
(3.52525 6.77242e-15 0)
(3.52525 1.19558e-14 0)
(3.52525 8.66108e-15 0)
(3.47473 0.0166945 0)
(3.439 0.0676616 0)
(3.45522 0.109081 0)
(3.47722 0.133515 0)
(3.4844 0.150766 0)
(3.48174 0.166554 0)
(3.47405 0.184 0)
(3.46463 0.204966 0)
(3.45531 0.231207 0)
(3.45065 0.270237 0)
(3.52242 0.00429992 0)
(3.51337 0.0250526 0)
(3.5087 0.0525516 0)
(3.50856 0.0715621 0)
(3.50699 0.086086 0)
(3.50381 0.101721 0)
(3.49896 0.120971 0)
(3.49299 0.147784 0)
(3.48534 0.176956 0)
(3.47388 0.248296 0)
(3.52525 -1.17403e-05 0)
(3.52521 6.46882e-05 0)
(3.52519 0.000263281 0)
(3.52519 0.000437647 0)
(3.52516 0.00060309 0)
(3.52516 0.000878648 0)
(3.52502 0.00113511 0)
(3.52503 0.00215351 0)
(3.52478 0.00223549 0)
(3.52472 0.00642859 0)
(3.52525 -5.52231e-07 0)
(3.52525 -1.41916e-07 0)
(3.52525 8.85583e-08 0)
(3.52525 2.01528e-07 0)
(3.52525 2.68697e-07 0)
(3.52525 7.31532e-07 0)
(3.52525 4.74769e-07 0)
(3.52525 3.55861e-06 0)
(3.52525 -6.00062e-07 0)
(3.52525 2.40701e-05 0)
(3.52525 -7.2903e-10 0)
(3.52525 -5.90355e-09 0)
(3.52525 -8.19551e-10 0)
(3.52525 -1.67347e-12 0)
(3.52525 6.30922e-12 0)
(3.52525 3.39713e-11 0)
(3.52525 -6.34042e-12 0)
(3.52525 3.17683e-10 0)
(3.52525 -2.97287e-08 0)
(3.52525 2.71548e-09 0)
)
;

boundaryField
{
    inlet
    {
        type            fixedValue;
        value           uniform (3.52525 0 0);
    }
    outlet
    {
        type            zeroGradient;
    }
    bottom
    {
        type            symmetryPlane;
    }
    top
    {
        type            symmetryPlane;
    }
    obstacle
    {
        type            slip;
    }
    defaultFaces
    {
        type            empty;
    }
}


// ************************************************************************* //
