/*--------------------------------*- C++ -*----------------------------------*\
| =========                 |                                                 |
| \\      /  F ield         | OpenFOAM: The Open Source CFD Toolbox           |
|  \\    /   O peration     | Version:  2206                                  |
|   \\  /    A nd           | Website:  www.openfoam.com                      |
|    \\/     M anipulation  |                                                 |
\*---------------------------------------------------------------------------*/
FoamFile
{
    version     2.0;
    format      ascii;
    arch        "LSB;label=32;scalar=64";
    class       volVectorField;
    location    "0.04";
    object      U;
}
// * * * * * * * * * * * * * * * * * * * * * * * * * * * * * * * * * * * * * //

dimensions      [0 1 -1 0 0 0 0];

internalField   nonuniform List<vector> 
75
(
(3.64646 -5.53929e-15 0)
(3.64646 -5.52179e-15 0)
(3.64646 -3.58812e-16 0)
(3.64646 5.69682e-16 0)
(3.64646 1.07227e-15 0)
(3.64646 -6.73033e-16 0)
(3.64646 -7.34043e-15 0)
(3.64646 -6.87119e-15 0)
(3.64646 -5.91686e-15 0)
(3.64646 -3.39838e-15 0)
(3.64646 -5.54304e-15 0)
(3.64646 -5.32384e-15 0)
(3.64646 -9.50539e-15 0)
(3.64646 -8.05681e-15 0)
(3.64646 1.52613e-15 0)
(3.64646 -4.97086e-15 0)
(3.64646 -5.15506e-16 0)
(3.64646 4.1228e-15 0)
(3.64646 9.66292e-15 0)
(3.64646 1.64664e-14 0)
(3.64646 4.94044e-15 0)
(3.64646 4.52245e-15 0)
(3.64646 8.06889e-15 0)
(3.64646 1.59007e-14 0)
(3.64646 1.46396e-14 0)
(3.59639 0.0127471 0)
(3.52508 0.0646766 0)
(3.46308 0.158882 0)
(3.44225 0.255141 0)
(3.45937 0.329184 0)
(3.48577 0.385126 0)
(3.50162 0.430995 0)
(3.50145 0.474436 0)
(3.48964 0.514792 0)
(3.47726 0.578711 0)
(3.64404 0.00345622 0)
(3.63099 0.0259304 0)
(3.59823 0.093631 0)
(3.55887 0.206176 0)
(3.53645 0.325394 0)
(3.52837 0.426495 0)
(3.5201 0.514752 0)
(3.50223 0.605189 0)
(3.4839 0.69016 0)
(3.43986 0.851466 0)
(3.64647 3.92774e-06 0)
(3.64651 -0.000123742 0)
(3.64604 0.000657204 0)
(3.64486 0.00370994 0)
(3.64327 0.0114078 0)
(3.64281 0.0207979 0)
(3.64153 0.034339 0)
(3.63984 0.053468 0)
(3.63722 0.0795659 0)
(3.63465 0.167684 0)
(3.64647 -4.26939e-07 0)
(3.64647 -9.41961e-06 0)
(3.64647 -9.58776e-06 0)
(3.64646 1.70833e-05 0)
(3.64645 4.66667e-06 0)
(3.64643 0.000225368 0)
(3.64641 0.000160763 0)
(3.64633 0.00110631 0)
(3.64623 0.000851077 0)
(3.6457 0.00888269 0)
(3.64646 -8.36535e-08 0)
(3.64646 -1.70449e-07 0)
(3.64646 -1.08758e-06 0)
(3.64646 -4.87735e-07 0)
(3.64646 -1.13014e-07 0)
(3.64646 2.02737e-07 0)
(3.64646 -3.0245e-07 0)
(3.64646 2.17871e-06 0)
(3.64646 -2.98108e-06 0)
(3.64646 4.49463e-05 0)
)
;

boundaryField
{
    inlet
    {
        type            fixedValue;
        value           uniform (3.64646 0 0);
    }
    outlet
    {
        type            zeroGradient;
    }
    bottom
    {
        type            symmetryPlane;
    }
    top
    {
        type            symmetryPlane;
    }
    obstacle
    {
        type            slip;
    }
    defaultFaces
    {
        type            empty;
    }
}


// ************************************************************************* //
