/*--------------------------------*- C++ -*----------------------------------*\
| =========                 |                                                 |
| \\      /  F ield         | OpenFOAM: The Open Source CFD Toolbox           |
|  \\    /   O peration     | Version:  2206                                  |
|   \\  /    A nd           | Website:  www.openfoam.com                      |
|    \\/     M anipulation  |                                                 |
\*---------------------------------------------------------------------------*/
FoamFile
{
    version     2.0;
    format      ascii;
    arch        "LSB;label=32;scalar=64";
    class       volVectorField;
    location    "0.18";
    object      U;
}
// * * * * * * * * * * * * * * * * * * * * * * * * * * * * * * * * * * * * * //

dimensions      [0 1 -1 0 0 0 0];

internalField   nonuniform List<vector> 
75
(
(5.0202 -8.54064e-15 0)
(5.0202 -8.52189e-15 0)
(5.0202 4.11154e-15 0)
(5.0202 3.34016e-15 0)
(5.0202 8.39562e-15 0)
(5.0202 -2.44626e-16 0)
(5.0202 -8.16141e-15 0)
(5.0202 -7.62798e-15 0)
(5.0202 -6.54113e-15 0)
(5.0202 -2.39443e-14 0)
(5.0202 4.94752e-15 0)
(5.0202 3.76273e-15 0)
(5.0202 -1.02618e-14 0)
(5.0202 -9.35953e-15 0)
(5.0202 1.99469e-14 0)
(5.0202 -1.11728e-14 0)
(5.0202 -7.36127e-15 0)
(5.0202 -4.06028e-15 0)
(5.0202 4.11904e-15 0)
(5.0202 1.25338e-13 0)
(5.0202 -1.26063e-15 0)
(5.0202 -7.5538e-15 0)
(5.0202 -4.81458e-15 0)
(5.0202 9.27035e-15 0)
(5.0202 2.66929e-14 0)
(4.98591 0.0278008 0)
(4.93642 0.0347406 0)
(4.8741 0.161488 0)
(4.82385 0.21002 0)
(4.74846 0.376622 0)
(4.70319 0.448489 0)
(4.61336 0.646978 0)
(4.5943 0.711801 0)
(4.50005 0.930076 0)
(4.42025 1.05835 0)
(5.02001 0.000479038 0)
(5.01969 0.00019289 0)
(5.01192 0.0131548 0)
(4.98611 0.0745611 0)
(4.93846 0.184568 0)
(4.85275 0.406196 0)
(4.75159 0.670505 0)
(4.62025 1.02248 0)
(4.48427 1.36849 0)
(4.28802 1.57172 0)
(5.0202 -5.36054e-06 0)
(5.0202 7.41586e-06 0)
(5.02026 -0.000162803 0)
(5.02009 0.000263764 0)
(5.02106 -0.00219651 0)
(5.01904 0.00490486 0)
(5.01281 0.0187569 0)
(4.9767 0.134838 0)
(4.95086 0.299234 0)
(4.69049 0.9624 0)
(5.0202 -4.33143e-07 0)
(5.0202 2.78808e-07 0)
(5.02021 -1.3412e-05 0)
(5.02021 -1.87616e-05 0)
(5.02023 -0.00010698 0)
(5.02024 -0.000189444 0)
(5.02019 -3.19143e-05 0)
(5.02001 0.000857264 0)
(5.0201 0.0105566 0)
(4.84806 0.579836 0)
(5.0202 -1.22511e-08 0)
(5.0202 -1.29643e-09 0)
(5.0202 3.53745e-08 0)
(5.0202 -1.90668e-06 0)
(5.0202 -8.88888e-06 0)
(5.02021 -4.89511e-05 0)
(5.02021 -5.2326e-05 0)
(5.02019 -7.33304e-06 0)
(5.02014 0.000151559 0)
(4.95595 0.0945104 0)
)
;

boundaryField
{
    inlet
    {
        type            fixedValue;
        value           uniform (5.0202 0 0);
    }
    outlet
    {
        type            zeroGradient;
    }
    bottom
    {
        type            symmetryPlane;
    }
    top
    {
        type            symmetryPlane;
    }
    obstacle
    {
        type            slip;
    }
    defaultFaces
    {
        type            empty;
    }
}


// ************************************************************************* //
