/*--------------------------------*- C++ -*----------------------------------*\
| =========                 |                                                 |
| \\      /  F ield         | OpenFOAM: The Open Source CFD Toolbox           |
|  \\    /   O peration     | Version:  2206                                  |
|   \\  /    A nd           | Website:  www.openfoam.com                      |
|    \\/     M anipulation  |                                                 |
\*---------------------------------------------------------------------------*/
FoamFile
{
    version     2.0;
    format      ascii;
    arch        "LSB;label=32;scalar=64";
    class       volVectorField;
    location    "0.2";
    object      U;
}
// * * * * * * * * * * * * * * * * * * * * * * * * * * * * * * * * * * * * * //

dimensions      [0 1 -1 0 0 0 0];

internalField   nonuniform List<vector> 
4800
(
(4.41414 1.83798e-14 0)
(4.41414 4.66447e-14 0)
(4.41414 3.97302e-14 0)
(4.41414 3.98669e-14 0)
(4.41414 2.99985e-14 0)
(4.41414 1.99468e-14 0)
(4.41414 9.33828e-15 0)
(4.41414 -1.131e-13 0)
(4.41414 -1.60814e-13 0)
(4.41414 -1.38791e-13 0)
(4.41414 -1.27585e-13 0)
(4.41414 -9.33628e-14 0)
(4.41414 -4.79383e-14 0)
(4.41414 3.09153e-14 0)
(4.41414 1.56454e-13 0)
(4.41414 1.80088e-13 0)
(4.41414 1.81281e-13 0)
(4.41414 1.36944e-13 0)
(4.41414 -1.65829e-14 0)
(4.41414 -6.39377e-14 0)
(4.41414 -5.78933e-14 0)
(4.41414 -4.66847e-14 0)
(4.41414 -4.94919e-14 0)
(4.41414 -7.746e-14 0)
(4.41414 -1.08455e-13 0)
(4.41414 -8.85253e-14 0)
(4.41414 -5.4166e-14 0)
(4.41414 -1.70463e-14 0)
(4.41414 3.59595e-14 0)
(4.41414 4.87518e-14 0)
(4.41414 5.70999e-14 0)
(4.41414 -9.37829e-15 0)
(4.41414 -1.25802e-13 0)
(4.41414 -1.50026e-13 0)
(4.41414 -1.19941e-13 0)
(4.41414 -1.163e-13 0)
(4.41414 -9.71534e-14 0)
(4.41414 -1.19027e-13 0)
(4.41414 -1.09949e-13 0)
(4.41414 -1.33273e-13 0)
(4.41414 -3.63396e-16 0)
(4.41414 5.63364e-14 0)
(4.41414 5.1859e-14 0)
(4.41414 4.73982e-14 0)
(4.41414 5.39326e-14 0)
(4.41414 1.28922e-14 0)
(4.41414 -1.1527e-13 0)
(4.41414 -1.50603e-13 0)
(4.41414 -1.66245e-13 0)
(4.41414 -1.99501e-13 0)
(4.41414 -1.83212e-13 0)
(4.41414 -1.5642e-13 0)
(4.41414 -7.85002e-14 0)
(4.41414 4.27174e-14 0)
(4.41414 1.26175e-13 0)
(4.41414 1.29289e-13 0)
(4.41414 1.7519e-13 0)
(4.41414 1.31523e-13 0)
(4.41414 5.96403e-14 0)
(4.41414 -9.2716e-15 0)
(4.41414 -5.27258e-14 0)
(4.41414 -7.65032e-14 0)
(4.41414 -6.23741e-14 0)
(4.41414 -1.43882e-13 0)
(4.41414 -1.90663e-13 0)
(4.41414 -1.78584e-13 0)
(4.41414 -1.5347e-13 0)
(4.41414 -1.31313e-13 0)
(4.41414 -5.10055e-14 0)
(4.41414 8.51047e-14 0)
(4.41414 1.19731e-13 0)
(4.41414 1.30523e-14 0)
(4.41414 -7.95937e-14 0)
(4.41414 -9.68634e-14 0)
(4.41414 -5.12922e-14 0)
(4.41414 -9.07823e-14 0)
(4.41414 -6.69782e-14 0)
(4.41414 -6.48679e-14 0)
(4.41414 -1.02541e-13 0)
(4.41414 -5.15118e-14 0)
(4.41414 -2.30907e-14 0)
(4.41414 -4.40009e-14 0)
(4.41414 -6.02537e-14 0)
(4.41414 -6.95587e-14 0)
(4.41414 -4.16272e-14 0)
(4.41414 -3.90467e-14 0)
(4.41414 -7.37994e-14 0)
(4.41414 -8.37511e-14 0)
(4.41414 -4.17172e-14 0)
(4.41414 -1.21154e-14 0)
(4.41414 1.87566e-14 0)
(4.41414 1.28822e-14 0)
(4.41414 1.64795e-14 0)
(4.41414 2.16571e-14 0)
(4.41414 5.38026e-14 0)
(4.41414 7.5533e-14 0)
(4.41414 3.4606e-14 0)
(4.41414 1.81031e-14 0)
(4.41414 -6.40111e-15 0)
(4.41414 -6.67315e-14 0)
(4.41414 -4.97186e-14 0)
(4.41414 2.84616e-14 0)
(4.41414 5.91902e-14 0)
(4.41414 1.97934e-14 0)
(4.41414 -4.35742e-15 0)
(4.41414 -2.72447e-14 0)
(4.41414 -6.13073e-14 0)
(4.41414 -7.04355e-14 0)
(4.41414 -7.41261e-14 0)
(4.41414 3.92734e-14 0)
(4.41414 1.01691e-13 0)
(4.41414 1.01594e-13 0)
(4.41414 7.70833e-14 0)
(4.41414 1.80898e-14 0)
(4.41414 -9.02489e-14 0)
(4.41414 -1.05071e-13 0)
(4.41414 -1.43781e-13 0)
(4.41414 -1.07835e-13 0)
(4.41414 -6.26442e-14 0)
(4.41414 -2.44906e-14 0)
(4.41414 9.27494e-15 0)
(4.41414 -6.13439e-15 0)
(4.41414 -3.72298e-14 0)
(4.41414 -3.50194e-14 0)
(4.41414 2.24305e-14 0)
(4.41414 6.06371e-14 0)
(4.41414 7.41595e-14 0)
(4.41414 8.18975e-14 0)
(4.41414 7.56264e-14 0)
(4.41414 1.23285e-13 0)
(4.41414 2.00361e-13 0)
(4.41414 2.31367e-13 0)
(4.41414 1.76684e-13 0)
(4.41414 1.22241e-13 0)
(4.41414 9.95272e-14 0)
(4.41414 8.46246e-14 0)
(4.41414 1.5336e-16 0)
(4.41414 -3.38725e-15 0)
(4.41414 -5.00786e-14 0)
(4.41414 -2.55744e-14 0)
(4.41414 1.94184e-13 0)
(4.41414 2.07533e-13 0)
(4.41414 2.44899e-13 0)
(4.41414 2.9024e-13 0)
(4.41414 3.51154e-13 0)
(4.41414 2.90844e-13 0)
(4.41414 1.68826e-13 0)
(4.41414 5.83434e-14 0)
(4.41414 6.08438e-15 0)
(4.41414 4.56946e-14 0)
(4.41414 3.34324e-14 0)
(4.41414 1.52093e-14 0)
(4.41414 4.56079e-14 0)
(4.41414 -3.70431e-14 0)
(4.41414 -2.6962e-13 0)
(4.41414 -3.12137e-13 0)
(4.41414 -3.21662e-13 0)
(4.41414 -2.78438e-13 0)
(4.41414 -1.84332e-13 0)
(4.41414 -1.31744e-13 0)
(4.41414 5.62097e-15 0)
(4.41414 3.92134e-14 0)
(4.41414 6.61548e-14 0)
(4.41414 5.23557e-14 0)
(4.41414 6.85585e-14 0)
(4.41414 6.5588e-14 0)
(4.41414 7.21891e-14 0)
(4.41414 1.03818e-13 0)
(4.41414 6.7495e-14 0)
(4.41414 4.36709e-14 0)
(4.41414 6.35076e-14 0)
(4.41414 7.3276e-14 0)
(4.41414 5.3866e-14 0)
(4.41414 3.52027e-14 0)
(4.41414 2.1437e-14 0)
(4.41414 3.47727e-15 0)
(4.41414 4.37476e-14 0)
(4.41414 1.78401e-13 0)
(4.41414 1.57977e-13 0)
(4.41414 1.19667e-13 0)
(4.41414 1.42665e-13 0)
(4.41414 9.37362e-14 0)
(4.41414 8.68717e-14 0)
(4.41414 1.16987e-13 0)
(4.41414 1.50986e-13 0)
(4.41414 1.55477e-13 0)
(4.41414 1.50333e-13 0)
(4.41414 1.90049e-13 0)
(4.41414 1.69936e-13 0)
(4.41414 1.88833e-13 0)
(4.41414 1.43928e-13 0)
(4.41414 6.80151e-14 0)
(4.41414 5.69465e-14 0)
(4.41414 7.11189e-14 0)
(4.41414 -1.11109e-13 0)
(4.41414 -3.27933e-13 0)
(4.41414 -3.03786e-13 0)
(4.41414 -2.38885e-13 0)
(4.41414 -1.47749e-13 0)
(4.41414 -1.11697e-13 0)
(4.41414 -1.58627e-14 0)
(4.41414 -4.28441e-14 0)
(4.41414 -3.60996e-14 0)
(4.41414 -2.81749e-14 0)
(4.41414 -7.90403e-14 0)
(4.41414 -8.91787e-14 0)
(4.41414 -6.49445e-14 0)
(4.41414 -7.14457e-14 0)
(4.41414 -9.8317e-14 0)
(4.41414 -8.91887e-14 0)
(4.41414 -1.08415e-13 0)
(4.41414 -1.1369e-13 0)
(4.41414 -1.23855e-13 0)
(4.41414 -5.43094e-14 0)
(4.41414 -5.53129e-14 0)
(4.41414 -3.4896e-14 0)
(4.41414 1.58494e-14 0)
(4.41414 9.69801e-14 0)
(4.41414 9.73868e-14 0)
(4.41414 6.52279e-14 0)
(4.41414 -3.52394e-15 0)
(4.41414 -5.77833e-14 0)
(4.41414 -1.59914e-13 0)
(4.41414 -1.62091e-13 0)
(4.41414 -1.79604e-13 0)
(4.41414 -1.65985e-13 0)
(4.41414 -3.75298e-14 0)
(4.41414 1.82558e-13 0)
(4.41414 2.8941e-13 0)
(4.41414 3.01349e-13 0)
(4.41414 2.80678e-13 0)
(4.41414 1.69763e-13 0)
(4.41414 1.60178e-13 0)
(4.41414 1.45889e-13 0)
(4.41414 5.87968e-14 0)
(4.41414 -3.38458e-14 0)
(4.41414 -1.07038e-13 0)
(4.41414 -1.07068e-13 0)
(4.41414 -1.21691e-13 0)
(4.41414 -1.08525e-13 0)
(4.41414 -6.45445e-15 0)
(4.41414 -3.2699e-14 0)
(4.41414 -5.43194e-14 0)
(4.41414 -2.84282e-14 0)
(4.41414 -9.73201e-14 0)
(4.41414 -1.53623e-13 0)
(4.41414 -2.00801e-13 0)
(4.41414 -2.30753e-13 0)
(4.41414 -2.01888e-13 0)
(4.41414 -1.50543e-13 0)
(4.41414 -1.32833e-13 0)
(4.41414 -1.25715e-13 0)
(4.41414 -8.24976e-14 0)
(4.41414 -9.65933e-14 0)
(4.41414 -1.48639e-13 0)
(4.41414 -1.40224e-13 0)
(4.41414 -9.12091e-14 0)
(4.41414 -1.68296e-14 0)
(4.41414 8.27143e-15 0)
(4.41414 4.02203e-14 0)
(4.41414 9.52164e-15 0)
(4.41414 -4.41843e-14 0)
(4.41414 -7.91403e-14 0)
(4.41414 -7.60498e-14 0)
(4.41414 -8.88487e-14 0)
(4.41414 -8.8992e-14 0)
(4.41414 -1.90966e-14 0)
(4.41414 5.0192e-14 0)
(4.41414 9.72001e-14 0)
(4.41414 1.58414e-13 0)
(4.41414 1.47022e-13 0)
(4.41414 1.46085e-13 0)
(4.41414 1.14133e-13 0)
(4.41414 1.36337e-13 0)
(4.41414 1.96511e-13 0)
(4.41414 1.68919e-13 0)
(4.41414 1.59728e-13 0)
(4.41414 4.8385e-14 0)
(4.41414 -7.727e-14 0)
(4.41414 -1.23442e-13 0)
(4.41414 -1.06685e-15 0)
(4.41414 -1.76364e-14 0)
(4.41414 -1.51459e-14 0)
(4.41414 -7.19124e-15 0)
(4.41414 2.02668e-14 0)
(4.41414 2.63412e-14 0)
(4.41414 -2.22705e-14 0)
(4.41414 -1.08025e-13 0)
(4.41414 -1.21724e-13 0)
(4.41414 -1.42355e-13 0)
(4.41414 -1.183e-13 0)
(4.41414 -1.24228e-13 0)
(4.41414 -1.07108e-13 0)
(4.41414 -1.76584e-13 0)
(4.41414 -1.94137e-13 0)
(4.41414 -2.43632e-13 0)
(4.41414 -1.63115e-13 0)
(4.41414 -5.23257e-14 0)
(4.41414 -1.96501e-14 0)
(4.41414 -3.22789e-14 0)
(4.41414 1.03318e-14 0)
(4.41414 1.11669e-13 0)
(4.41414 6.98221e-14 0)
(4.41414 5.55129e-14 0)
(4.41414 9.29661e-14 0)
(4.41414 3.39292e-14 0)
(4.41414 2.18304e-14 0)
(4.41414 1.21321e-14 0)
(4.41414 1.28689e-15 0)
(4.41414 -6.0107e-14 0)
(4.41414 3.62063e-14 0)
(4.41414 8.83619e-14 0)
(4.41414 1.11653e-13 0)
(4.41414 1.82988e-13 0)
(4.41414 1.85359e-13 0)
(4.41414 1.66872e-13 0)
(4.41414 2.12137e-13 0)
(4.41414 9.05456e-14 0)
(4.41414 1.84365e-14 0)
(4.41414 -1.2563e-14 0)
(4.41414 5.66765e-17 0)
(4.41414 1.04118e-14 0)
(4.41414 -2.13037e-15 0)
(4.41414 -1.21121e-14 0)
(4.41414 8.55248e-14 0)
(4.41414 1.34783e-13 0)
(4.41414 1.75724e-13 0)
(4.41414 1.22775e-13 0)
(4.41414 -9.05156e-15 0)
(4.41414 -2.14337e-14 0)
(4.41414 -9.8717e-15 0)
(4.41414 -4.88418e-14 0)
(4.41414 -1.01944e-13 0)
(4.41414 -1.3741e-13 0)
(4.41414 -2.29533e-13 0)
(4.41414 -2.09029e-13 0)
(4.41414 -1.40588e-13 0)
(4.41414 -1.57947e-13 0)
(4.41414 -1.53613e-13 0)
(4.41414 -1.63588e-13 0)
(4.41414 -2.01742e-13 0)
(4.41414 -9.85337e-14 0)
(4.41414 -4.6308e-15 0)
(4.41414 -4.29674e-14 0)
(4.41414 -9.69467e-14 0)
(4.41414 4.99753e-15 0)
(4.41414 3.69597e-14 0)
(4.41414 8.64616e-14 0)
(4.41414 2.73181e-14 0)
(4.41414 -6.69582e-14 0)
(4.41414 -1.10839e-13 0)
(4.41414 -3.84733e-14 0)
(4.41414 2.82182e-14 0)
(4.41414 1.27789e-14 0)
(4.41414 1.60861e-14 0)
(4.41414 6.55913e-14 0)
(4.41414 8.91154e-14 0)
(4.41414 7.5413e-14 0)
(4.41414 1.04885e-14 0)
(4.41414 3.96393e-14 0)
(4.41414 1.41858e-14 0)
(4.41414 2.71914e-14 0)
(4.41414 1.32123e-14 0)
(4.41414 -8.19141e-15 0)
(4.41414 1.42591e-14 0)
(4.41414 6.77184e-14 0)
(4.41414 8.4718e-14 0)
(4.41414 1.22588e-13 0)
(4.41414 7.9357e-14 0)
(4.41414 3.88734e-14 0)
(4.41414 1.14686e-15 0)
(4.41414 2.5111e-14 0)
(4.41414 -7.00121e-15 0)
(4.41414 -9.96839e-14 0)
(4.41414 -1.47662e-13 0)
(4.41414 -1.43828e-13 0)
(4.41414 -1.65645e-13 0)
(4.41414 -2.05749e-13 0)
(4.41414 -2.00295e-13 0)
(4.41414 -1.64118e-13 0)
(4.41414 -1.67929e-13 0)
(4.41414 -1.35383e-13 0)
(4.41414 -8.03639e-14 0)
(4.41414 -9.21192e-14 0)
(4.41414 -1.43348e-13 0)
(4.41414 -8.64883e-14 0)
(4.41414 2.7118e-14 0)
(4.41414 -4.13405e-16 0)
(4.41414 -2.8845e-14 0)
(4.41414 1.89399e-14 0)
(4.41414 5.70032e-14 0)
(4.41414 6.03604e-14 0)
(4.41414 1.54693e-14 0)
(4.41414 3.47727e-15 0)
(4.41414 3.41726e-15 0)
(4.41414 4.09071e-15 0)
(4.41414 1.62428e-14 0)
(4.41414 4.49478e-14 0)
(4.41414 8.65716e-14 0)
(4.41414 6.72329e-14 0)
(4.41414 -6.80117e-16 0)
(4.41414 2.3004e-15 0)
(4.41414 1.39257e-14 0)
(4.41414 7.78801e-15 0)
(4.41414 -2.9055e-14 0)
(4.41414 -1.908e-14 0)
(4.41414 9.86837e-15 0)
(4.41414 9.34328e-14 0)
(4.41414 9.88704e-14 0)
(4.41414 8.53147e-15 0)
(4.41414 -1.88233e-14 0)
(4.41414 -2.08369e-14 0)
(4.41414 -2.66413e-14 0)
(4.41414 -2.66213e-14 0)
(4.41414 3.33391e-14 0)
(4.41414 -3.96102e-14 0)
(4.41414 -1.5313e-13 0)
(4.41414 -1.79708e-13 0)
(4.41414 -2.02915e-13 0)
(4.41414 -1.67676e-13 0)
(4.41414 -1.182e-13 0)
(4.41414 -1.15893e-13 0)
(4.41414 -5.5753e-14 0)
(4.41414 6.04338e-14 0)
(4.41414 8.33344e-14 0)
(4.41414 5.57763e-14 0)
(4.41414 -9.25893e-14 0)
(4.41414 -1.7113e-13 0)
(4.41414 -1.24221e-13 0)
(4.41414 -6.61848e-14 0)
(4.41414 8.29477e-15 0)
(4.41414 -2.73814e-14 0)
(4.41414 -4.83817e-14 0)
(4.41414 -1.78497e-14 0)
(4.41414 -4.4641e-14 0)
(4.41414 -3.97669e-14 0)
(4.41414 -3.20555e-14 0)
(4.41414 -4.28141e-14 0)
(4.41414 4.88451e-14 0)
(4.41414 1.05095e-13 0)
(4.41414 -9.56832e-16 0)
(4.41414 1.3729e-14 0)
(4.41414 1.49559e-14 0)
(4.41414 1.25922e-14 0)
(4.41414 -2.43375e-16 0)
(4.41414 1.1702e-15 0)
(4.41414 -2.02035e-15 0)
(4.41414 -9.63166e-15 0)
(4.41414 -1.25222e-14 0)
(4.41414 3.15988e-14 0)
(4.41414 4.59013e-14 0)
(4.41414 8.67817e-15 0)
(4.41414 -5.13755e-15 0)
(4.41414 -4.2374e-14 0)
(4.41414 -6.02437e-14 0)
(4.41414 -9.32228e-14 0)
(4.41414 -1.11866e-13 0)
(4.41414 -1.18504e-13 0)
(4.41414 -1.13783e-13 0)
(4.41414 -1.1486e-13 0)
(4.41414 -8.83153e-14 0)
(4.41414 -7.65265e-14 0)
(4.41414 -1.63061e-14 0)
(4.41414 1.95967e-14 0)
(4.41414 6.58847e-14 0)
(4.41414 1.47892e-14 0)
(4.41414 6.00104e-17 0)
(4.41414 -8.41812e-15 0)
(4.41414 -3.03519e-14 0)
(4.41414 -1.84952e-13 0)
(4.41414 -1.77444e-13 0)
(4.41414 -1.45308e-13 0)
(4.41414 -1.28872e-13 0)
(4.41414 -6.3641e-14 0)
(4.41414 -7.51463e-15 0)
(4.41414 3.86067e-15 0)
(4.41414 -6.01371e-14 0)
(4.41414 -9.40062e-14 0)
(4.41414 -1.07859e-13 0)
(4.41414 6.71578e-14 0)
(4.41414 9.0449e-15 0)
(4.41414 -1.5306e-14 0)
(4.41414 -4.38076e-14 0)
(4.41414 -2.37608e-14 0)
(4.41414 1.99268e-14 0)
(4.41414 2.28073e-14 0)
(4.41414 1.15687e-14 0)
(4.41414 -1.09219e-14 0)
(4.41414 2.33374e-17 0)
(4.41414 1.22655e-14 0)
(4.41414 8.76818e-15 0)
(4.41414 -1.50359e-14 0)
(4.41414 -5.51529e-14 0)
(4.41414 -6.08538e-14 0)
(4.41414 -6.99654e-14 0)
(4.41414 -1.1452e-14 0)
(4.41414 -3.77065e-15 0)
(4.41414 1.45092e-14 0)
(4.41414 1.05752e-14 0)
(4.41414 -6.61848e-14 0)
(4.41414 -7.13223e-14 0)
(4.41414 -8.3161e-14 0)
(4.41414 -1.04865e-13 0)
(4.41414 -1.45492e-13 0)
(4.41414 -1.39564e-13 0)
(4.41414 -1.31279e-13 0)
(4.41414 -8.55881e-14 0)
(4.41414 -2.84916e-14 0)
(4.41414 -3.19555e-14 0)
(4.41414 -1.60734e-13 0)
(4.41414 -1.86356e-13 0)
(4.41414 -1.57227e-13 0)
(4.41414 -1.25572e-13 0)
(4.41414 -1.04971e-13 0)
(4.41414 -9.17158e-15 0)
(4.41414 1.53993e-14 0)
(4.41414 7.75134e-15 0)
(4.41414 -3.36058e-14 0)
(4.41414 -7.22758e-14 0)
(4.41414 -9.25495e-14 0)
(4.41414 2.52977e-14 0)
(4.41414 2.54044e-14 0)
(4.41414 3.6643e-14 0)
(4.41414 5.86601e-14 0)
(4.41414 7.93437e-14 0)
(4.41414 4.14505e-14 0)
(4.41414 4.25707e-14 0)
(4.41414 1.19171e-13 0)
(4.41414 1.39324e-13 0)
(4.41414 1.33586e-13 0)
(4.41414 7.90637e-14 0)
(4.41414 6.39277e-14 0)
(4.41414 5.33059e-14 0)
(4.41414 8.70584e-14 0)
(4.41414 1.80394e-13 0)
(4.41414 1.82031e-13 0)
(4.41414 1.94654e-13 0)
(4.41414 2.17124e-13 0)
(4.41414 1.85852e-13 0)
(4.41414 7.42528e-14 0)
(4.41414 -5.2129e-14 0)
(4.41414 -9.58165e-14 0)
(4.41414 -9.73301e-14 0)
(4.41414 -1.22625e-13 0)
(4.41414 -1.12336e-13 0)
(4.41414 -1.14113e-13 0)
(4.41414 -1.33053e-13 0)
(4.41414 -1.03508e-13 0)
(4.41414 -7.10656e-14 0)
(4.41414 -2.68813e-14 0)
(4.41414 -4.76416e-15 0)
(4.41414 -4.60313e-14 0)
(4.41414 3.17622e-14 0)
(4.41414 6.62748e-14 0)
(4.41414 9.653e-14 0)
(4.41414 1.02864e-13 0)
(4.41414 7.708e-14 0)
(4.41414 4.90118e-14 0)
(4.41414 1.75564e-14 0)
(4.41414 4.67068e-15 0)
(4.41414 -1.29822e-14 0)
(4.41414 2.85249e-14 0)
(4.41414 4.60713e-14 0)
(4.41414 6.9462e-14 0)
(4.41414 4.55845e-14 0)
(4.41414 3.21556e-14 0)
(4.41414 3.04586e-14 0)
(4.41414 4.27974e-14 0)
(4.41414 5.4136e-14 0)
(4.41414 9.19425e-14 0)
(4.41414 8.42679e-14 0)
(4.41414 8.61282e-14 0)
(4.41414 1.34823e-13 0)
(4.41414 1.70096e-13 0)
(4.41414 1.40474e-13 0)
(4.41414 1.49619e-13 0)
(4.41414 1.75264e-13 0)
(4.41414 1.82822e-13 0)
(4.41414 2.4821e-13 0)
(4.41414 2.09339e-13 0)
(4.41414 8.44746e-14 0)
(4.41414 3.45426e-14 0)
(4.41414 3.5016e-14 0)
(4.41414 3.0932e-14 0)
(4.41414 -1.50759e-14 0)
(4.41414 -6.87352e-14 0)
(4.41414 -1.65262e-14 0)
(4.41414 1.01871e-13 0)
(4.41414 1.62858e-13 0)
(4.41414 2.84682e-14 0)
(4.41414 -7.43262e-14 0)
(4.41414 -1.21101e-13 0)
(4.41414 3.81399e-15 0)
(4.41414 2.1138e-13 0)
(4.41414 1.83382e-13 0)
(4.41414 1.50759e-13 0)
(4.41414 1.09086e-13 0)
(4.41414 -9.33495e-17 0)
(4.41414 4.17239e-14 0)
(4.41414 1.09771e-13 0)
(4.41414 -2.12103e-14 0)
(4.41414 -5.39226e-14 0)
(4.41414 -5.93636e-14 0)
(4.41414 -4.53245e-14 0)
(4.41414 -7.05455e-14 0)
(4.41414 -7.58964e-14 0)
(4.41414 -3.04486e-14 0)
(4.41414 -2.23272e-14 0)
(4.41414 -3.6813e-14 0)
(4.41414 -5.37726e-14 0)
(4.41414 -1.40824e-14 0)
(4.41414 2.51677e-14 0)
(4.41414 3.54861e-14 0)
(4.41414 2.40141e-14 0)
(4.41414 -3.0692e-14 0)
(4.41414 2.69213e-14 0)
(4.41414 3.62996e-14 0)
(4.41414 4.77983e-14 0)
(4.41414 4.26107e-14 0)
(4.41414 5.89969e-14 0)
(4.41414 1.19291e-13 0)
(4.41414 1.5231e-13 0)
(4.41414 1.83598e-13 0)
(4.41414 2.27909e-13 0)
(4.41414 2.04452e-13 0)
(4.41414 2.26426e-13 0)
(4.41414 2.22358e-13 0)
(4.41414 2.09636e-13 0)
(4.41414 2.37938e-13 0)
(4.41414 2.66013e-14 0)
(4.41414 -7.08622e-14 0)
(4.41414 -4.05303e-14 0)
(4.41414 -2.79848e-14 0)
(4.41414 -2.37841e-14 0)
(4.41414 -1.77797e-14 0)
(4.41414 -5.70098e-15 0)
(4.41414 -1.28789e-14 0)
(4.41414 -2.33807e-14 0)
(4.41414 -2.56978e-14 0)
(4.41414 -6.5567e-14 0)
(4.41414 3.89734e-15 0)
(4.41414 -7.48796e-15 0)
(4.41414 4.96752e-16 0)
(4.41414 1.60694e-15 0)
(4.41414 -7.55697e-14 0)
(4.41414 -9.2886e-14 0)
(4.41414 -1.26565e-13 0)
(4.41414 -1.29426e-13 0)
(4.41414 -1.11689e-13 0)
(4.41414 -4.90651e-14 0)
(4.41414 6.7295e-14 0)
(4.41414 1.17564e-13 0)
(4.41414 6.30509e-14 0)
(4.41414 2.6998e-14 0)
(4.41414 3.79866e-14 0)
(4.41414 4.05237e-14 0)
(4.41414 5.83534e-14 0)
(4.41414 6.5858e-14 0)
(4.41414 -1.28122e-14 0)
(4.41414 -4.4641e-14 0)
(4.41414 9.59566e-14 0)
(4.41414 1.38587e-13 0)
(4.41414 1.41014e-13 0)
(4.41414 1.87076e-13 0)
(4.41414 3.37252e-13 0)
(4.41414 3.17335e-13 0)
(4.41414 2.48193e-13 0)
(4.41414 1.51973e-13 0)
(4.41414 3.15454e-14 0)
(4.41414 -4.02036e-14 0)
(4.41414 -8.18008e-14 0)
(4.41414 -7.12256e-14 0)
(4.41414 -9.06523e-14 0)
(4.41414 -9.75035e-14 0)
(4.41414 4.8075e-15 0)
(4.41414 2.2884e-14 0)
(4.41414 6.07438e-15 0)
(4.41414 2.05069e-14 0)
(4.41414 1.47259e-14 0)
(4.41414 -2.5331e-14 0)
(4.41414 -1.56027e-15 0)
(4.41414 8.60815e-15 0)
(4.41414 1.99034e-15 0)
(4.41414 -4.50478e-14 0)
(4.41414 -7.15023e-14 0)
(4.41414 -4.77382e-14 0)
(4.41414 -6.84852e-14 0)
(4.41414 -5.99303e-14 0)
(4.41414 -2.55611e-14 0)
(4.41414 4.77949e-14 0)
(4.41414 1.22625e-13 0)
(4.41414 1.46872e-13 0)
(4.41414 1.10009e-13 0)
(4.41414 9.56298e-14 0)
(4.41414 1.11926e-13 0)
(4.41414 1.43655e-13 0)
(4.41414 1.43025e-14 0)
(4.41414 -3.02586e-14 0)
(4.41414 -3.55928e-14 0)
(4.41414 5.4326e-14 0)
(4.41414 1.7588e-13 0)
(4.41414 1.80791e-13 0)
(4.41414 1.63008e-13 0)
(4.41414 1.1664e-13 0)
(4.41414 8.38211e-14 0)
(4.41414 7.76067e-14 0)
(4.41414 8.24142e-14 0)
(4.41414 1.96501e-14 0)
(4.41414 -1.78664e-14 0)
(4.41414 -9.59999e-14 0)
(4.41414 -1.06362e-13 0)
(4.41414 -8.56048e-14 0)
(4.41414 -1.18921e-14 0)
(4.41414 1.02904e-13 0)
(4.41414 1.43491e-13 0)
(4.41414 6.86852e-14 0)
(4.41414 -3.66997e-14 0)
(4.41414 -4.76382e-14 0)
(4.41414 -5.10388e-14 0)
(4.41414 -7.40942e-14 0)
(4.41414 -8.03805e-15 0)
(4.41414 -5.92769e-15 0)
(4.41414 5.74766e-15 0)
(4.41414 1.08752e-14 0)
(4.41414 5.55863e-14 0)
(4.41414 5.92702e-14 0)
(4.41414 4.30074e-14 0)
(4.41414 4.68781e-14 0)
(4.41414 3.34258e-14 0)
(4.41414 2.63479e-14 0)
(4.41414 -2.14604e-14 0)
(4.41414 -7.86136e-15 0)
(4.41414 5.35159e-14 0)
(4.41414 7.13557e-14 0)
(4.41414 2.94818e-14 0)
(4.41414 -1.17687e-14 0)
(4.41414 -1.19517e-13 0)
(4.41414 -1.98318e-13 0)
(4.41414 -1.35597e-13 0)
(4.41414 -1.915e-14 0)
(4.41414 1.06652e-13 0)
(4.41414 2.39461e-13 0)
(4.41414 2.03765e-13 0)
(4.41414 7.94937e-14 0)
(4.41414 2.75614e-14 0)
(4.41414 -2.64446e-14 0)
(4.41414 4.66414e-15 0)
(4.41414 6.61548e-14 0)
(4.41414 8.13207e-14 0)
(4.41414 5.13655e-14 0)
(4.41414 -2.79382e-15 0)
(4.41414 -4.68281e-14 0)
(4.41414 -6.02971e-14 0)
(4.41414 1.83198e-14 0)
(4.41414 2.06569e-14 0)
(4.41414 -4.8375e-15 0)
(4.41414 -6.09439e-15 0)
(4.41414 1.00871e-13 0)
(4.41414 1.59801e-13 0)
(4.41414 1.50421e-13 0)
(4.41414 1.11019e-15 0)
(4.41414 2.35141e-14 0)
(4.41414 7.09923e-14 0)
(4.41414 1.05128e-13 0)
(4.41414 1.00791e-13 0)
(4.41414 4.18939e-14 0)
(4.41414 1.10186e-14 0)
(4.41414 1.69296e-14 0)
(4.41414 -1.67796e-14 0)
(4.41414 -1.65929e-14 0)
(4.41414 -4.52745e-14 0)
(4.41414 -5.36593e-14 0)
(4.41414 -2.3134e-14 0)
(4.41414 -1.5156e-14 0)
(4.41414 -1.63428e-14 0)
(4.41414 1.11919e-14 0)
(4.41414 1.44858e-14 0)
(4.41414 8.8582e-15 0)
(4.41414 1.86899e-14 0)
(4.41414 4.84084e-15 0)
(4.41414 -6.00104e-17 0)
(4.41414 3.51161e-14 0)
(4.41414 4.32575e-14 0)
(4.41414 -8.8982e-15 0)
(4.41414 -8.66716e-14 0)
(4.41414 -9.83903e-14 0)
(4.41414 -1.20074e-13 0)
(4.41414 -1.78064e-14 0)
(4.41414 2.73014e-14 0)
(4.41414 7.68099e-14 0)
(4.41414 5.68365e-14 0)
(4.41414 3.1172e-14 0)
(4.41414 -4.69114e-14 0)
(4.41414 -1.88889e-13 0)
(4.41414 -1.71576e-13 0)
(4.41414 -9.2736e-14 0)
(4.41414 1.1721e-13 0)
(4.41414 2.6792e-13 0)
(4.41414 3.68154e-13 0)
(4.41414 2.96096e-13 0)
(4.41414 1.48492e-14 0)
(4.41414 2.41608e-14 0)
(4.41414 2.97785e-14 0)
(4.41414 2.46243e-14 0)
(4.41414 3.23056e-15 0)
(4.41414 3.02819e-14 0)
(4.41414 7.5533e-14 0)
(4.41414 7.32627e-14 0)
(4.41414 5.76233e-14 0)
(4.41414 6.02437e-15 0)
(4.41414 -3.42759e-14 0)
(4.41414 -8.99022e-14 0)
(4.41414 -9.64567e-14 0)
(4.41414 -6.20907e-14 0)
(4.41414 4.36142e-14 0)
(4.41414 1.1431e-13 0)
(4.41414 1.7361e-13 0)
(4.41414 1.77307e-13 0)
(4.41414 1.08772e-13 0)
(4.41414 6.96887e-14 0)
(4.41414 5.11788e-14 0)
(4.41414 -6.03137e-14 0)
(4.41414 -1.3477e-13 0)
(4.41414 -1.63328e-13 0)
(4.41414 -1.06822e-13 0)
(4.41414 -9.03323e-14 0)
(4.41414 -1.32163e-13 0)
(4.41414 -1.49566e-13 0)
(4.41414 -7.28559e-14 0)
(4.41414 8.14941e-14 0)
(4.41414 1.00531e-13 0)
(4.41414 6.44745e-14 0)
(4.41414 1.88499e-14 0)
(4.41414 -6.32643e-14 0)
(4.41414 -8.3171e-14 0)
(4.41414 -1.46059e-14 0)
(4.41414 1.51993e-13 0)
(4.41414 2.15854e-13 0)
(4.41414 2.78141e-13 0)
(4.41414 2.08377e-13 0)
(4.41414 5.02087e-15 0)
(4.41414 -2.61712e-15 0)
(4.41414 -3.16755e-14 0)
(4.41414 -3.91934e-14 0)
(4.41414 -8.32477e-15 0)
(4.41414 1.70763e-14 0)
(4.41414 3.11754e-14 0)
(4.41414 1.99701e-15 0)
(4.41414 1.08985e-14 0)
(4.41414 -2.43409e-14 0)
(4.41414 -5.44994e-14 0)
(4.41414 -7.57964e-14 0)
(4.41414 -1.05315e-13 0)
(4.41414 -9.09224e-14 0)
(4.41414 -6.14106e-15 0)
(4.41414 -5.64764e-15 0)
(4.41414 8.83153e-15 0)
(4.41414 1.08552e-14 0)
(4.41414 -2.00035e-14 0)
(4.41414 -2.7208e-14 0)
(4.41414 -3.98235e-14 0)
(4.41414 -1.26985e-13 0)
(4.41414 -1.83318e-13 0)
(4.41414 -1.39767e-13 0)
(4.41414 -7.58431e-14 0)
(4.41414 -8.64983e-14 0)
(4.41414 -9.94872e-14 0)
(4.41414 -5.44227e-14 0)
(4.41414 -4.50911e-14 0)
(4.41414 -7.09523e-14 0)
(4.41414 -5.88235e-14 0)
(4.41414 -2.16437e-14 0)
(4.41414 7.23792e-15 0)
(4.41414 3.78532e-14 0)
(4.41414 2.8955e-14 0)
(4.41414 2.74581e-14 0)
(4.41414 6.10705e-14 0)
(4.41414 7.23558e-14 0)
(4.41414 1.20454e-14 0)
(4.41414 1.37587e-13 0)
(4.41414 -1.10619e-14 0)
(4.41414 -3.06686e-14 0)
(4.41414 -5.1949e-14 0)
(4.41414 -6.06338e-14 0)
(4.41414 -8.39112e-14 0)
(4.41414 -1.55157e-13 0)
(4.41414 -1.62295e-13 0)
(4.41414 -1.48979e-13 0)
(4.41414 -7.5043e-14 0)
(4.41414 1.71896e-14 0)
(4.41414 -1.80698e-14 0)
(4.41414 -1.98701e-15 0)
(4.41414 9.55498e-15 0)
(4.41414 9.21159e-15 0)
(4.41414 -2.20205e-14 0)
(4.41414 2.3104e-15 0)
(4.41414 -8.33811e-15 0)
(4.41414 -1.97067e-14 0)
(4.41414 -6.5778e-14 0)
(4.41414 -6.43778e-14 0)
(4.41414 -6.46045e-14 0)
(4.41414 -7.71433e-14 0)
(4.41414 -5.69165e-14 0)
(4.41414 -4.6428e-14 0)
(4.41414 -9.87704e-14 0)
(4.41414 -8.71851e-14 0)
(4.41414 -3.50194e-14 0)
(4.41414 1.38157e-14 0)
(4.41414 -1.03551e-14 0)
(4.41414 -2.17571e-14 0)
(4.41414 -3.98035e-14 0)
(4.41414 -4.88318e-14 0)
(4.41414 -7.5193e-14 0)
(4.41414 -6.30376e-14 0)
(4.41414 -8.1124e-14 0)
(4.41414 -7.82935e-14 0)
(4.41414 -1.35713e-13 0)
(4.41414 -2.76678e-13 0)
(4.41414 -2.91787e-13 0)
(4.41414 -1.86566e-13 0)
(4.41414 -8.66816e-16 0)
(4.41414 -7.84135e-15 0)
(4.41414 -1.47192e-14 0)
(4.41414 -3.4716e-14 0)
(4.41414 -7.43995e-14 0)
(4.41414 -1.01844e-13 0)
(4.41414 -9.85604e-14 0)
(4.41414 -7.95871e-14 0)
(4.41414 -4.95052e-14 0)
(4.41414 2.39841e-14 0)
(4.41414 4.94352e-14 0)
(4.41414 3.31424e-14 0)
(4.41414 6.12072e-14 0)
(4.41414 4.70415e-14 0)
(4.41414 2.9205e-14 0)
(4.41414 7.25859e-14 0)
(4.41414 8.93788e-14 0)
(4.41414 6.84652e-14 0)
(4.41414 7.5113e-15 0)
(4.41414 1.79898e-14 0)
(4.41414 2.22605e-14 0)
(4.41414 1.53226e-14 0)
(4.41414 2.8905e-15 0)
(4.41414 -2.25039e-14 0)
(4.41414 -7.39528e-14 0)
(4.41414 -8.20308e-14 0)
(4.41414 -1.57861e-14 0)
(4.41414 5.77966e-14 0)
(4.41414 8.62616e-14 0)
(4.41414 8.11173e-14 0)
(4.41414 5.88668e-14 0)
(4.41414 7.06989e-14 0)
(4.41414 9.2606e-14 0)
(4.41414 -1.87166e-14 0)
(4.41414 -8.02005e-14 0)
(4.41414 -1.04398e-13 0)
(4.41414 -1.27709e-13 0)
(4.41414 -1.41441e-13 0)
(4.41414 -1.27059e-13 0)
(4.41414 -1.57343e-13 0)
(4.41414 -1.00951e-14 0)
(4.41414 7.90136e-16 0)
(4.41414 3.24389e-15 0)
(4.41414 4.75749e-15 0)
(4.41414 4.74582e-14 0)
(4.41414 8.64549e-14 0)
(4.41414 8.19675e-14 0)
(4.41414 2.24572e-14 0)
(4.41414 -2.99018e-14 0)
(4.41414 -6.87952e-14 0)
(4.41414 -9.51164e-15 0)
(4.41414 2.21372e-14 0)
(4.41414 6.32743e-14 0)
(4.41414 3.99769e-14 0)
(4.41414 1.67129e-14 0)
(4.41414 -1.39191e-14 0)
(4.41414 -3.00785e-14 0)
(4.41414 -4.36809e-14 0)
(4.41414 -2.14337e-14 0)
(4.41414 1.55894e-14 0)
(4.41414 2.74781e-14 0)
(4.41414 1.87266e-14 0)
(4.41414 -3.56728e-15 0)
(4.41414 -4.76249e-14 0)
(4.41414 -4.14638e-14 0)
(4.41414 -6.70783e-15 0)
(4.41414 -1.44592e-14 0)
(4.41414 -2.91284e-14 0)
(4.41414 -4.0607e-14 0)
(4.41414 -3.79332e-14 0)
(4.41414 -5.42427e-14 0)
(4.41414 -3.40192e-14 0)
(4.41414 1.86432e-14 0)
(4.41414 1.3759e-14 0)
(4.41414 -6.30776e-15 0)
(4.41414 -5.30092e-15 0)
(4.41414 4.39743e-14 0)
(4.41414 8.2921e-14 0)
(4.41414 1.03805e-13 0)
(4.41414 8.64591e-14 0)
(4.41414 1.14353e-14 0)
(4.41414 2.79382e-14 0)
(4.41414 3.38925e-14 0)
(4.41414 4.00803e-14 0)
(4.41414 1.59928e-14 0)
(4.41414 2.68713e-15 0)
(4.41414 5.80367e-14 0)
(4.41414 7.53563e-14 0)
(4.41414 -7.73467e-15 0)
(4.41414 -7.68966e-14 0)
(4.41414 -1.21121e-13 0)
(4.41414 2.16971e-14 0)
(4.41414 3.12321e-14 0)
(4.41414 1.09652e-14 0)
(4.41414 2.07603e-14 0)
(4.41414 -2.86049e-15 0)
(4.41414 -7.22391e-14 0)
(4.41414 -8.00038e-14 0)
(4.41414 -2.89917e-14 0)
(4.41414 -1.40791e-14 0)
(4.41414 -6.15106e-15 0)
(4.41414 1.57427e-14 0)
(4.41414 -1.91833e-14 0)
(4.41414 -4.93952e-14 0)
(4.41414 1.65529e-14 0)
(4.41414 8.74451e-14 0)
(4.41414 4.70281e-14 0)
(4.41414 -7.31293e-14 0)
(4.41414 -8.85086e-14 0)
(4.41414 -7.9227e-14 0)
(4.41414 -6.43144e-14 0)
(4.41414 -1.08389e-13 0)
(4.41414 -9.4643e-14 0)
(4.41414 -5.27024e-14 0)
(4.41414 -3.71864e-14 0)
(4.41414 -1.89466e-14 0)
(4.41414 8.76818e-15 0)
(4.41414 4.69914e-14 0)
(4.41414 1.04905e-13 0)
(4.41414 1.30313e-13 0)
(4.41414 2.34674e-14 0)
(4.41414 2.76214e-14 0)
(4.41414 2.45509e-14 0)
(4.41414 -2.40241e-14 0)
(4.41414 -7.15957e-14 0)
(4.41414 -5.79767e-14 0)
(4.41414 -5.773e-14 0)
(4.41414 7.20124e-15 0)
(4.41414 1.69896e-14 0)
(4.41414 -1.03751e-14 0)
(4.41414 -1.68562e-14 0)
(4.41414 -9.60166e-16 0)
(4.41414 2.39908e-14 0)
(4.41414 4.70915e-14 0)
(4.41414 1.81965e-14 0)
(4.41414 -3.59662e-14 0)
(4.41414 -4.73415e-15 0)
(4.41414 2.03702e-15 0)
(4.41414 -1.30656e-14 0)
(4.41414 -2.34774e-14 0)
(4.41414 3.74798e-14 0)
(4.41414 4.49678e-14 0)
(4.41414 3.32591e-14 0)
(4.41414 7.19558e-14 0)
(4.41414 8.56848e-14 0)
(4.41414 1.12976e-13 0)
(4.41414 7.84069e-14 0)
(4.41414 -3.62063e-14 0)
(4.41414 -6.31376e-14 0)
(4.41414 -9.628e-14 0)
(4.41414 -5.70265e-14 0)
(4.41414 -6.22341e-14 0)
(4.41414 -6.09905e-14 0)
(4.41414 1.90866e-14 0)
(4.41414 -6.08772e-15 0)
(4.41414 -7.87669e-14 0)
(4.41414 -8.05672e-14 0)
(4.41414 -5.51695e-14 0)
(4.41414 -3.57362e-14 0)
(4.41414 2.04303e-14 0)
(4.41414 -1.28522e-14 0)
(4.41414 -3.70364e-14 0)
(4.41414 -2.45642e-14 0)
(4.41414 -2.14137e-14 0)
(4.41414 -9.99839e-15 0)
(4.41414 1.67096e-14 0)
(4.41414 -2.64146e-14 0)
(4.41414 -6.90153e-14 0)
(4.41414 -5.68198e-14 0)
(4.41414 -3.07453e-14 0)
(4.41414 -1.64662e-14 0)
(4.41414 -6.27642e-14 0)
(4.41414 -5.0342e-14 0)
(4.41414 -2.85449e-14 0)
(4.41414 -4.50845e-14 0)
(4.41414 -2.8755e-14 0)
(4.41414 1.22488e-14 0)
(4.41414 6.86519e-14 0)
(4.41414 8.13107e-14 0)
(4.41414 9.73301e-14 0)
(4.41414 5.73732e-14 0)
(4.41414 -9.83503e-16 0)
(4.41414 -4.34408e-15 0)
(4.41414 1.16163e-13 0)
(4.41414 2.34554e-13 0)
(4.41414 2.56558e-13 0)
(4.41414 1.52923e-13 0)
(4.41414 2.58378e-15 0)
(4.41414 -1.10719e-14 0)
(4.41414 -2.44876e-14 0)
(4.41414 -1.26722e-14 0)
(4.41414 1.31089e-14 0)
(4.41414 2.93051e-15 0)
(4.41414 3.77499e-14 0)
(4.41414 6.10505e-14 0)
(4.41414 5.09855e-14 0)
(4.41414 7.19791e-15 0)
(4.41414 -6.89452e-15 0)
(4.41414 -8.7095e-14 0)
(4.41414 -1.31933e-13 0)
(4.41414 -5.36759e-16 0)
(4.41414 1.68696e-15 0)
(4.41414 7.3146e-15 0)
(4.41414 7.10589e-14 0)
(4.41414 7.5423e-14 0)
(4.41414 6.03238e-14 0)
(4.41414 -6.80117e-15 0)
(4.41414 -3.46927e-14 0)
(4.41414 -2.62712e-15 0)
(4.41414 -1.88699e-15 0)
(4.41414 -2.16904e-14 0)
(4.41414 -8.48146e-15 0)
(4.41414 2.00468e-14 0)
(4.41414 1.947e-15 0)
(4.41414 1.04785e-14 0)
(4.41414 3.07386e-14 0)
(4.41414 2.14004e-14 0)
(4.41414 9.26993e-14 0)
(4.41414 1.26248e-13 0)
(4.41414 1.12993e-13 0)
(4.41414 1.02071e-13 0)
(4.41414 5.6133e-14 0)
(4.41414 3.70397e-14 0)
(4.41414 4.08971e-14 0)
(4.41414 4.23506e-14 0)
(4.41414 2.34574e-14 0)
(4.41414 -1.04685e-15 0)
(4.41414 5.46428e-15 0)
(4.41414 1.22488e-14 0)
(4.41414 -4.21473e-14 0)
(4.41414 -4.62413e-14 0)
(4.41414 -3.42893e-14 0)
(4.41414 -3.3039e-14 0)
(4.41414 -1.69196e-14 0)
(4.41414 1.46592e-14 0)
(4.41414 -1.31189e-14 0)
(4.41414 -8.91187e-14 0)
(4.41414 -1.42975e-13 0)
(4.41414 -2.20465e-13 0)
(4.41414 -2.89133e-13 0)
(4.41414 5.46428e-15 0)
(4.41414 -2.22538e-14 0)
(4.41414 -4.12305e-14 0)
(4.41414 -1.99034e-15 0)
(4.41414 4.23673e-14 0)
(4.41414 4.92652e-14 0)
(4.41414 -4.94419e-15 0)
(4.41414 4.6218e-14 0)
(4.41414 1.5706e-14 0)
(4.41414 8.81486e-15 0)
(4.41414 1.63462e-14 0)
(4.41414 1.47859e-14 0)
(4.41414 3.99802e-14 0)
(4.41414 5.27624e-14 0)
(4.41414 1.80264e-14 0)
(4.41414 1.81365e-14 0)
(4.41414 3.81099e-14 0)
(4.41414 7.00121e-17 0)
(4.41414 -1.71363e-14 0)
(4.41414 2.47276e-14 0)
(4.41414 5.42227e-14 0)
(4.41414 5.70265e-14 0)
(4.41414 3.35558e-14 0)
(4.41414 -1.63395e-14 0)
(4.41414 -7.10189e-14 0)
(4.41414 -1.3589e-13 0)
(4.41414 -1.25962e-13 0)
(4.41414 -1.3728e-13 0)
(4.41414 -1.46985e-13 0)
(4.41414 -1.19937e-13 0)
(4.41414 -1.16217e-13 0)
(4.41414 -1.01314e-13 0)
(4.41414 -7.89603e-14 0)