/*--------------------------------*- C++ -*----------------------------------*\
| =========                 |                                                 |
| \\      /  F ield         | OpenFOAM: The Open Source CFD Toolbox           |
|  \\    /   O peration     | Version:  2206                                  |
|   \\  /    A nd           | Website:  www.openfoam.com                      |
|    \\/     M anipulation  |                                                 |
\*---------------------------------------------------------------------------*/
FoamFile
{
    version     2.0;
    format      ascii;
    arch        "LSB;label=32;scalar=64";
    class       volScalarField;
    location    "0.14";
    object      p;
}
// * * * * * * * * * * * * * * * * * * * * * * * * * * * * * * * * * * * * * //

dimensions      [1 -1 -2 0 0 0 0];

internalField   nonuniform List<scalar> 
4800
(
1
1
1
1
1
1
1
1
1
1
1
1
1
1
1
1
1
1
1
1
1
1
1
1
1
1
1
1
1
1
1
1
1
1
1
1
1
1
1
1
1
1
1
1
1
1
1
1
1
1
1
1
1
1
1
1
1
1
1
1
1
1
1
1
1
1
1
1
1
1
1
1
1
1
1
1
1
1
1
1
1
1
1
1
1
1
1
1
1
1
1
1
1
1
1
1
1
1
1
1
1
1
1
1
1
1
1
1
1
1
1
1
1
1
1
1
1
1
1
1
1
1
1
1
1
1
1
1
1
1
1
1
1
1
1
1
1
1
1
1
1
1
1
1
1
1
1
1
1
1
1
1
1
1
1
1
1
1
1
1
1
1
1
1
1
1
1
1
1
1
1
1
1
1
1
1
1
1
1
1
1
1
1
1
1
1
1
1
1
1
1
1
1
1
1
1
1
1
1
1
1
1
1
1
1
1
1
1
1
1
1
1
1
1
1
1
1
1
1
1
1
1
1
1
1
1
1
1
1
1
1
1
1
1
1
1
1
1
1
1
1
1
1
1
1
1
1
1
1
1
1
1
1
1
1
1
1
1
1
1
1
1
1
1
1
1
1
1
1
1
1
1
1
1
1
1
1
1
1
1
1
1
1
1
1
1
1
1
1
1
1
1
1
1
1
1
1
1
1
1
1
1
1
1
1
1
1
1
1
1
1
1
1
1
1
1
1
1
1
1
1
1
1
1
1
1
1
1
1
1
1
1
1
1
1
1
1
1
1
1
1
1
1
1
1
1
1
1
1
1
1
1
1
1
1
1
1
1
1
1
1
1
1
1
1
1
1
1
1
1
1
1
1
1
1
1
1
1
1
1
1
1
1
1
1
1
1
1
1
1
1
1
1
1
1
1
1
1
1
1
1
1
1
1
1
1
1
1
1
1
1
1
1
1
1
1
1
1
1
1
1
1
1
1
1
1
1
1
1
1
1
1
1
1
1
1
1
1
1
1
1
1
1
1
1
1
1
1
1
1
1
1
1
1
1
1
1
1
1
1
1
1
1
1
1
1
1
1
1
1
1
1
1
1
1
1
1
1
1
1
1
1
1
1
1
1
1
1
1
1
1
1
1
1
1
1
1
1
1
1
1
1
1
1
1
1
1
1
1
1
1
1
1
1
1
1
1
1
1
1
1
1
1
1
1
1
1
1
1
1
1
1
1
1
1
1
1
1
1
1
1
1
1
1
1
1
1
1
1
1
1
1
1
1
1
1
1
1
1
1
1
1
1
1
1
1
1
1
1
1
1
1
1
1
1
1
1
1
1
1
1
1
1
1
1
1
1
1
1
1
1
1
1
1
1
1
1
1
1
1
1
1
1
1
1
1
1
1
1
1
1
1
1
1
1
1
1
1
1
1
1
1
1
1
1
1
1
1
1
1
1
1
1
1
1
1
1
1
1
1
1
1
1
1
1
1
1
1
1
1
1
1
1
1
1
1
1
1
1
1
1
1
1
1
1
1
1
1
1
1
1
1
1
1
1
1
1
1
1
1
1
1
1
1
1
1
1
1
1
1
1
1
1
1
1
1
1
1
1
1
1
1
1
1
1
1
1
1
1
1
1
1
1
1
1
1
1
1
1
1
1
1
1
1
1
1
1
1
1
1
1
1
1
1
1
1
1
1
1
1
1
1
1
1
1
1
1
1
1
1
1
1
1
1
1
1
1
1
1
1
1
1
1
1
1
1
1
1
1
1
1
1
1
1
1
1
1
1
1
1
1
1
1
1
1
1
1
1
1
1
1
1
1
1
1
1
1
1
1
1
1
1
1
1
1
1
1
1
1
1
1
1
1
1
1
1
1
1
1
1
1
1
1
1
1
1
1
1
1
1
1
1
1
1
1
1
1
1
1
1
1
1
1
1
1
1
1
1
1
1
1
1
1
1
1
1
1
1
1
1
1
1
1
1
1
1
1
1
1
1
1
1
1
1
1
1
1
1
1
1
1
1
1
1
1
1
1
1
1
1
1
1
1
1
1
1
1
1
1
1
1
1
1
1
1
1
1
1
1
1
1
1
1
1
1
1
1
1
1
1
1
1
1
1
1
1
1
1
1
1
1
1
1
1
1
1
1
1
1
1
1
1
1
1
1
1
1
1
1
1
1
1
1
1
1
1
1
1
1
1
1
1
1
1
1
1
1
1
1
1
1
1
1
1
1
1
1
1
1
1
1
1
1
1
1
1
1
1
1
1
1
1
1
1
1
1
1
1
1
1
1
1
1
1
1
1
1
1
1
1
1
1
1
1
1
1
1
1
1
1
1
1
1
1
1
1
1
1
1
1
1
1
1
1
1
1
1
1
1
1
1
1
1
1
1
1
1
1
1
1
1
1
1
1
1
1
1
1
1
1
1
1
1
1
1
1
1
1
1
1
1
1
1
1
1
1
1
1
1
1
1
1
1
1
1
1
1
1
1
1
1
1
1
1
1
1
1
1
1
1
1
1
1
1
1
1
1
1
1
1
1
1
1
1
1
1
1
1
1
1
1
1
1
1
1
1
1
1
1
1
1
1
1
1
1
1
1
1
1
1
1
1
1
1
1
1
1
1
1
1
1
1
1
1
1
1
1
1
1
1
1
1
1
1
1
1
1
1
1
1
1
1
1
1
1
1
1
1
1
1
1
1
1
1
1
1
1
1
1
1
1
1
1
1
1
1
1
1
1
1
1
1
1
1
1
1
1
1
1
1
1
1
1
1
1
1
1
1
1
1
1
1
1
1
1
1
1
1
1
1
1
1
1
1
1
1
1
1
1
1
1
1
1
1
1
1
1
1
1
1
1
1
1
1
1
1
1
1
1
1
1
1
1
1
1
1
1
1
1
1
1
1
1
1
1
1
1
1
1
1
1
1
1
1
1
1
1
1
1
1
1
1
1
1
1
1
1
1
1
1
1
1
1
1
1
1
1
1
1
1
1
1
1
1
1
1
1
1
1
1
1
1
1
1
1
1
1
1
1
1
1
1
1
1
1
1
1
1
1
1
1
1
1
1
1
1
1
1
1
1
1
1
1
1
1
1
1
1
1
1
1
1
1
1
1
1
1
1
1
1
1
1
1
1
1
1
1
1
1
1
1
1
1
1
1
1
1
1
1
1
1
1
1
1
1
1
1
1
1
1
1
1
1
1
1
1
1
1
1
1
1
1
1
1
1
1
1
1
1
1
1
1
1
1
1
1
1
1
1
1
1
1
1
1
1
1
1
1
1
1
1
1
1
1
1
1
1
1
1
1
1
1
1
1
1
1
1
1
1
1
1
1
1
1
1
1
1
1
1
1
1
1
1
1
1
1
1
1
1
1
1
1
1
1
1
1
1
1
1
1
1
1
1
1
1
1
1
1
1
1
1
1
1
1
1
1
1
1
1
1
1
1
1
1
1
1
1
1
1
1
1
1
1
1
1
1
1
1
1
1
1
1
1
1
1
1
1
1
1
1
1
1
1
1
1
1
1
1
1
1
1
1
1
1
1
1
1
1
1
1
1
1
1
1
1
1
1
1
1
1
1
1
1
1
1
1
1
1
1
1
1
1
1
1
1
1
1
1
1
1
1
1
1
1
1
1
1
1
1
1
1.26039
1.67334
2.16241
2.75855
3.4322
3.96074
4.48473
5.33009
6.12246
6.38063
6.61999
7.17502
7.59202
7.57009
7.3497
7.20172
7.01712
6.62508
6.05079
5.46685
5.09778
4.87366
4.78772
4.73275
4.72181
4.7404
4.76265
4.82098
4.87365
4.89425
4.92191
4.96282
5.01059
5.05653
5.10285
5.1143
5.11002
5.11478
5.12987
5.13551
5.13003
5.11073
5.08763
5.07286
5.07159
5.08301
5.1116
5.14292
5.1649
5.17284
5.17421
5.17262
5.15637
5.11051
5.057
5.03879
5.04276
5.06976
5.12957
5.19209
5.2255
5.23262
5.22647
5.19792
5.15373
5.10282
5.06866
5.05627
5.0553
5.06502
5.09002
5.12183
5.16098
5.19242
5.21401
5.22778
5.23097
5.22544
5.21385
5.18571
1
0.999994
0.999627
0.997305
1.03267
1.18158
1.32
1.45487
1.78184
2.27239
2.66676
3.06304
3.71671
4.22982
4.46359
4.93206
5.19838
5.19188
5.449
5.49963
5.55636
5.56154
5.45536
5.2984
5.24107
5.20219
5.12226
5.06747
5.01508
4.96773
4.93631
4.93125
4.94157
4.97259
5.02376
5.04309
5.05238
5.07413
5.10786
5.12343
5.12325
5.11547
5.11299
5.11331
5.10768
5.09774
5.09287
5.0931
5.10999
5.14578
5.16653
5.16808
5.15475
5.13093
5.11701
5.1029
5.09854
5.10582
5.11595
5.12001
5.1326
5.15052
5.15873
5.15717
5.14402
5.13707
5.1372
5.1385
5.14287
5.1464
5.14397
5.14106
5.13683
5.13612
5.14012
5.14928
5.16316
5.17871
5.1847
5.17765
1
1
1
1
0.999997
1
0.999999
0.999999
0.999335
1.00072
1.02448
1.07953
1.2359
1.59533
2.05898
2.69053
3.61688
4.56931
5.36252
5.76549
5.84849
5.96447
5.9548
5.85333
5.70775
5.56062
5.4259
5.15673
5.04793
5.02398
4.95784
4.92996
4.93244
4.95272
4.99504
5.01763
5.01687
5.02757
5.04836
5.07478
5.11256
5.13655
5.14194
5.14435
5.14286
5.12826
5.0975
5.07832
5.07777
5.08619
5.1097
5.14031
5.15522
5.1563
5.15399
5.15669
5.15513
5.14563
5.12509
5.1031
5.0847
5.07585
5.07766
5.09465
5.12906
5.16631
5.18695
5.1991
5.20642
5.20573
5.194
5.1695
5.14414
5.12088
5.10699
5.1001
5.09816
5.10862
5.13676
5.16641
1
1
1
1
1
1
1
1
1
1
1
1
1
1
0.999044
1.01573
1.16297
1.58019
2.21202
3.20285
3.94987
4.84012
5.24359
5.32163
5.40278
5.31999
5.26014
5.32431
5.37359
5.38319
5.32429
5.19414
5.13247
5.10442
5.07066
5.00434
4.92844
4.9124
4.91977
4.94997
5.01447
5.10984
5.16575
5.17866
5.17917
5.15967
5.10835
5.06416
5.05094
5.05144
5.06097
5.08412
5.12629
5.16955
5.19227
5.19884
5.19498
5.17812
5.14893
5.11401
5.07869
5.06055
5.0593
5.0654
5.08624
5.13043
5.18597
5.22534
5.23689
5.2345
5.22039
5.18727
5.13529
5.10184
5.09185
5.08886
5.09085
5.09995
5.11323
5.1431
1
1
1
1
1
1
1
1
1
1
1
1
1
1
1
1
1
0.999278
1.00126
1.09282
1.36407
1.81831
2.6452
3.45498
4.41824
5.02666
5.29887
5.5777
5.57352
5.53777
5.51295
5.4443
5.35383
5.20669
5.13062
5.05306
4.97412
4.94012
4.93693
4.94834
4.97828
5.04485
5.1317
5.16207
5.16096
5.14817
5.11837
5.08931
5.08206
5.07673
5.07688
5.08472
5.10491
5.1374
5.16709
5.18516
5.19217
5.18558
5.15794
5.12312
5.09882
5.08579
5.0825
5.08352
5.08782
5.10516
5.13624
5.17358
5.20124
5.2099
5.20476
5.17613
5.1443
5.13443
5.13055
5.12651
5.12379
5.1283
5.13876
5.14961
1
1
1
1
1
1
1
1
1
1
1
1
1
1
1
1
1
1
1
1
0.999995
0.998741
1.03727
1.18977
1.4846
2.25118
3.07984
4.02616
4.53327
4.79124
5.06041
5.07575
5.13242
5.23495
5.29085
5.28119
5.21346
5.14848
5.08904
5.03428
4.99819
4.99317
5.00879
5.039
5.05045
5.06509
5.07908
5.08846
5.10751
5.12232
5.12411
5.1213
5.11271
5.10153
5.10276
5.10929
5.12263
5.14005
5.15071
5.156
5.16054
5.16129
5.15638
5.14165
5.12383
5.11977
5.11932
5.12074
5.12455
5.1305
5.13671
5.14542
5.15747
5.16575
5.16997
5.17563
5.17864
5.17788
5.17783
5.17062
1
1
1
1
1
1
1
1
1
1
1
1
1
1
1
1
1
1
1
1
1
1
1
1
0.999178
1.01359
1.10433
1.31845
1.91685
2.6713
3.52825
4.17083
4.68579
5.17821
5.31741
5.34992
5.34119
5.30847
5.24284
5.10434
4.99003
4.98101
4.99017
5.00095
5.01046
5.02725
5.06726
5.12088
5.15496
5.17404
5.17687
5.15802
5.11495
5.07697
5.0523
5.04947
5.05523
5.07849
5.127
5.17332
5.19958
5.21391
5.21894
5.21285
5.17981
5.11654
5.08784
5.0839
5.08542
5.08779
5.0951
5.11213
5.13776
5.16959
5.19465
5.20451
5.20623
5.20488
5.20564
5.19117
1
1
1
1
1
1
1
1
1
1
1
1
1
1
1
1
1
1
1
1
1
1
1
1
1
0.999999
1
0.999447
1.00422
1.04384
1.19439
1.75644
2.44377
3.30129
3.91145
4.45403
4.91947
5.05704
5.08801
5.07223
5.06422
5.07392
5.08992
5.07486
5.03631
5.02667
5.04263
5.08138
5.11775
5.14704
5.16721
5.17575
5.1524
5.07858
5.03893
5.03922
5.04656
5.06075
5.08357
5.126
5.17703
5.21609
5.22792
5.22093
5.19428
5.16542
5.12925
5.10943
5.10337
5.10047
5.10108
5.10758
5.11809
5.13694
5.16551
5.18852
5.19637
5.19878
5.19802
5.17664
1
1
1
1
1
1
1
1
1
1
1
1
1
1
1
1
1
1
1
1
1
1
1
1
1
1
1
1
1
1
0.999647
1.00183
1.02555
1.16799
1.61113
2.17196
3.01093
3.74146
4.53906
4.94181
5.09131
5.2027
5.20505
5.17552
5.10232
5.00457
4.95299
4.95168
4.99415
5.06667
5.1335
5.16187
5.1701
5.16361
5.13722
5.11416
5.09637
5.07552
5.07123
5.07903
5.0986
5.12433
5.15398
5.16682
5.16729
5.16716
5.17308
5.17974
5.17514
5.16115
5.13828
5.1232
5.12818
5.13866
5.14129
5.14248
5.14414
5.14594
5.14953
5.14793
1
1
1
1
1
1
1
1
1
1
1
1
1
1
1
1
1
1
1
1
1
1
1
1
1
1
1
1
1
1
1
1
1
0.999975
1.00027
1.01121
1.14454
1.55522
2.12793
2.96578
3.6664
4.5092
4.93189
4.95126
4.98185
5.00343
4.94879
4.92574
4.97331
5.04172
5.0769
5.12434
5.14613
5.14907
5.16595
5.19933
5.21
5.18586
5.12378
5.07723
5.06699
5.07111
5.07379
5.07539
5.08366
5.113
5.16334
5.20039
5.211
5.21213
5.20622
5.18693
5.16064
5.13609
5.11866
5.10821
5.10537
5.1072
5.11682
5.13169
1
1
1
1
1
1
1
1
1
1
1
1
1
1
1
1
1
1
1
1
1
1
1
1
1
1
1
1
1
1
1
1
1
1
1
1
0.999916
1.00042
1.01343
1.16065
1.50817
2.10436
2.96249
3.72361
4.55791
4.87972
5.00119
5.04063
5.03525
5.01953
5.00146
5.00162
5.04169
5.09717
5.15592
5.20767
5.23017
5.23229
5.21785
5.1808
5.12577
5.08466
5.05979
5.05255
5.0555
5.06771
5.10312
5.15935
5.20481
5.20786
5.1999
5.19222
5.18862
5.18064
5.15858
5.12822
5.10493
5.10226
5.11362
5.13085
1
1
1
1
1
1
1
1
1
1
1
1
1
1
1
1
1
1
1
1
1
1
1
1
1
1
1
1
1
1
1
1
1
1
1
1
1
1
0.999997
0.999948
1.00043
1.01487
1.18414
1.5438
2.16984
3.00349
3.94628
4.8257
4.95618
4.8928
4.96259
4.95451
4.91562
4.91219
4.9439
5.03984
5.16577
5.20561
5.19715
5.19752
5.20073
5.20247
5.17524
5.11859
5.06908
5.0588
5.08336
5.1132
5.12537
5.13108
5.13626
5.14928
5.16905
5.17619
5.16889
5.15924
5.15151
5.1449
5.14512
5.14498
1
1
1
1
1
1
1
1
1
1
1
1
1
1
1
1
1
1
1
1
1
1
1
1
1
1
1
1
1
1
1
1
1
1
1
1
1
1
1
1
0.999999
1
0.999861
1.00124
1.02762
1.22809
1.64813
2.50084
3.31348
4.14732
4.80386
4.99879
4.97461
4.94508
4.88549
4.90112
4.98647
5.07809
5.104
5.14061
5.18174
5.21661
5.22701
5.21095
5.19285
5.17218
5.15335
5.12876
5.09946
5.08314
5.08354
5.09236
5.11625
5.1453
5.15495
5.15284
5.15369
5.16319
5.18106
5.18142
1
1
1
1
1
1
1
1
1
1
1
1
1
1
1
1
1
1
1
1
1
1
1
1
1
1
1
1
1
1
1
1
1
1
1
1
1
1
1
1
1
1
0.999999
0.999996
1.00002
0.99999
1.00349
1.07557
1.34365
1.81724
2.66962
3.62538
4.67318
4.9557
4.925
5.01002
5.03424
5.00508
4.94733
4.91977
4.96242
5.06881
5.17053
5.18252
5.18874
5.21093
5.22766
5.23013
5.18378
5.1156
5.07946
5.07272
5.09097
5.1108
5.11455
5.11657
5.12504
5.15997
5.18831
5.18864
1
1
1
1
1
1
1
1
1
1
1
1
1
1
1
1
1
1
1
1
1
1
1
1
1
1
1
1
1
1
1
1
1
1
1
1
1
1
1
1
1
1
1
1
1
1
0.999994
0.999973
1.00066
1.01071
1.13189
1.47144
2.35363
3.34882
4.18941
4.77841
5.089
5.1048
5.02381
4.87252
4.87643
4.92938
5.04198
5.10288
5.11237
5.16434
5.21864
5.23669
5.21579
5.1787
5.16301
5.14957
5.13732
5.12463
5.10985
5.10303
5.11178
5.13183
5.15722
5.16357
1
1
1
1
1
1
1
1
1
1
1
1
1
1
1
1
1
1
1
1
1
1
1
1
1
1
1
1
1
1
1
1
1
1
1
1
1
1
1
1
1
1
1
1
1
1
1
0.999999
0.999999
1
0.999999
1.00262
1.06978
1.42527
1.95739
2.76211
3.79255
4.81895
5.00465
4.96013
5.04111
5.11302
5.08259
5.05643
4.99963
4.9949
5.04611
5.12222
5.15202
5.14103
5.14787
5.17487
5.19868
5.20859
5.18698
5.14297
5.13157
5.13257
5.13504
5.13463
1
1
1
1
1
1
1
1
1
1
1
1
1
1
1
1
1
1
1
1
1
1
1
1
1
1
1
1
1
1
1
1
1
1
1
1
1
1
1
1
1
1
1
1
1
1
1
1
1
1
1
0.999999
0.999966
1.0022
1.02105
1.18069
1.5952
2.61923
3.69164
4.45709
4.85571
5.16158
5.21022
5.19379
5.0556
4.96877
4.97727
5.00466
5.06002
5.06021
5.05488
5.14295
5.21541
5.22564
5.19187
5.16659
5.16949
5.17418
5.16814
5.13835
1
1
1
1
1
1
1
1
1
1
1
1
1
1
1
1
1
1
1
1
1
1
1
1
1
1
1
1
1
1
1
1
1
1
1
1
1
1
1
1
1
1
1
1
1
1
1
1
1
1
1
1
0.999998
1
0.99997
1.00032
1.007
1.14176
1.75997
2.61617
3.32399
4.32122
5.07033
5.17042
5.11666
5.13478
5.20029
5.16518
5.1131
5.06183
5.03281
5.07062
5.12076
5.14003
5.13429
5.13214
5.14416
5.17167
5.18121
5.16333
1
1
1
1
1
1
1
1
1
1
1
1
1
1
1
1
1
1
1
1
1
1
1
1
1
1
1
1
1
1
1
1
1
1
1
1
1
1
1
1
1
1
1
1
1
1
1
1
1
1
1
1
1
1
0.999998
0.999998
0.999981
1.00049
1.01563
1.11888
1.50796
2.22532
3.44207
4.29715
4.69864
4.99453
5.19456
5.23411
5.22859
5.18856
5.13536
5.10315
5.09614
5.07781
5.06974
5.0657
5.0768
5.11768
5.16151
5.16363
1
1
1
1
1
1
1
1
1
1
1
1
1
1
1
1
1
1
1
1
1
1
1
1
1
1
1
1
1
1
1
1
1
1
1
1
1
1
1
1
1
1
1
1
1
1
1
1
1
1
1
1
1
1
1
1
0.999998
0.999998
0.999982
1.00018
1.00671
1.05583
1.47549
2.6361
3.65043
4.14904
4.77416
5.15535
5.18174
5.17895
5.20605
5.24676
5.26115
5.20898
5.13774
5.08444
5.0727
5.11168
5.13271
5.12154
1
1
1
1
1
1
1
1
1
1
1
1
1
1
1
1
1
1
1
1
1
1
1
1
1
1
1
1
1
1
1
1
1
1
1
1
1
1
1
1
1
1
1
1
1
1
1
1
1
1
1
1
1
1
1
1
1
1
0.999998
0.999999
0.99999
1.00004
1.01006
1.12959
1.70908
2.54321
3.62241
4.58928
4.70781
4.78522
4.94838
5.1411
5.22551
5.20755
5.16959
5.1712
5.18838
5.19104
5.15142
5.10248
1
1
1
1
1
1
1
1
1
1
1
1
1
1
1
1
1
1
1
1
1
1
1
1
1
1
1
1
1
1
1
1
1
1
1
1
1
1
1
1
1
1
1
1
1
1
1
1
1
1
1
1
1
1
1
1
1
1
1
1
0.999999
0.999999
0.999985
1.00053
1.02076
1.13275
1.55455
2.71697
4.32131
4.55652
4.69039
4.91116
5.10394
5.0618
5.01299
5.0717
5.20874
5.25573
5.2379
5.17565
1
1
1
1
1
1
1
1
1
1
1
1
1
1
1
1
1
1
1
1
1
1
1
1
1
1
1
1
1
1
1
1
1
1
1
1
1
1
1
1
1
1
1
1
1
1
1
1
1
1
1
1
1
1
1
1
1
1
1
1
1
1
0.999998
0.999998
0.999992
1.00044
1.0157
1.16301
2.03162
3.34151
4.29017
5.00001
5.06552
4.98494
4.88188
4.92534
5.04549
5.15376
5.19635
5.15853
1
1
1
1
1
1
1
1
1
1
1
1
1
1
1
1
1
1
1
1
1
1
1
1
1
1
1
1
1
1
1
1
1
1
1
1
1
1
1
1
1
1
1
1
1
1
1
1
1
1
1
1
1
1
1
1
1
1
1
1
1
1
1
1
0.999999
0.999998
0.999992
1.00152
1.06627
1.52425
2.32173
3.60768
4.73905
5.0802
5.09434
5.02211
4.99474
5.02382
5.08771
5.09153
1
1
1
1
1
1
1
1
1
1
1
1
1
1
1
1
1
1
1
1
1
1
1
1
1
1
1
1
1
1
1
1
1
1
1
1
1
1
1
1
1
1
1
1
1
1
1
1
1
1
1
1
1
1
1
1
1
1
1
1
1
1
1
1
1
1
0.999999
0.999995
1.00033
1.011
1.1313
1.54787
2.72985
4.20596
4.94862
5.05642
5.16882
5.22108
5.17751
5.11748
1
1
1
1
1
1
1
1
1
1
1
1
1
1
1
1
1
1
1
1
1
1
1
1
1
1
1
1
1
1
1
1
1
1
1
1
1
1
1
1
1
1
1
1
1
1
1
1
1
1
1
1
1
1
1
1
1
1
1
1
1
1
1
1
1
1
1
0.999999
0.999999
0.999992
1.00089
1.01281
1.28772
2.35554
3.56043
4.32116
5.02724
5.19664
5.19027
5.18059
1
1
1
1
1
1
1
1
1
1
1
1
1
1
1
1
1
1
1
1
1
1
1
1
1
1
1
1
1
1
1
1
1
1
1
1
1
1
1
1
1
1
1
1
1
1
1
1
1
1
1
1
1
1
1
1
1
1
1
1
1
1
1
1
1
1
1
1
1
0.999999
0.999998
1.00001
1.00795
1.10572
1.80543
2.97213
4.4131
4.80776
4.82593
4.99598
1
1
1
1
1
1
1
1
1
1
1
1
1
1
1
1
1
1
1
1
1
1
1
1
1
1
1
1
1
1
1
1
1
1
1
1
1
1
1
1
1
1
1
1
1
1
1
1
1
1
1
1
1
1
1
1
1
1
1
1
1
1
1
1
1
1
1
1
1
1
1
1
1
1.00095
1.05234
1.381
2.29189
3.64395
4.58536
5.12172
1
1
1
1
1
1
1
1
1
1
1
1
1
1
1
1
1
1
1
1
1
1
1
1
1
1
1
1
1
1
1
1
1
1
1
1
1
1
1
1
1
1
1
1
1
1
1
1
1
1
1
1
1
1
1
1
1
1
1
1
1
1
1
1
1
1
1
1
1
1
1
1
1
0.999998
1.00028
1.00991
1.10133
1.86372
3.38064
4.67462
1
1
1
1
1
1
1
1
1
1
1
1
1
1
1
1
1
1
1
1
1
1
1
1
1
1
1
1
1
1
1
1
1
1
1
1
1
1
1
1
1
1
1
1
1
1
1
1
1
1
1
1
1
1
1
1
1
1
1
1
1
1
1
1
1
1
1
1
1
1
1
1
1
1
0.999999
1
1.00121
1.06726
1.59528
3.52781
1
1
1
1
1
1
1
1
1
1
1
1
1
1
1
1
1
1
1
1
1
1
1
1
1
1
1
1
1
1
1
1
1
1
1
1
1
1
1
1
1
1
1
1
1
1
1
1
1
1
1
1
1
1
1
1
1
1
1
1
1
1
1
1
1
1
1
1
1
1
1
1
1
1
1
1
1
1.00115
1.02986
2.01838
1
1
1
1
1
1
1
1
1
1
1
1
1
1
1
1
1
1
1
1
1
1
1
1
1
1
1
1
1
1
1
1
1
1
1
1
1
1
1
1
1
1
1
1
1
1
1
1
1
1
1
1
1
1
1
1
1
1
1
1
1
1
1
1
1
1
1
1
1
1
1
1
1
1
1
1
1
1
1.00052
1.18633
1
1
1
1
1
1
1
1
1
1
1
1
1
1
1
1
1
1
1
1
1
1
1
1
1
1
1
1
1
1
1
1
1
1
1
1
1
1
1
1
1
1
1
1
1
1
1
1
1
1
1
1
1
1
1
1
1
1
1
1
1
1
1
1
1
1
1
1
1
1
1
1
1
1
1
1
1
1
1
1.01351
1
1
1
1
1
1
1
1
1
1
1
1
1
1
1
1
1
1
1
1
1
1
1
1
1
1
1
1
1
1
1
1
1
1
1
1
1
1
1
1
1
1
1
1
1
1
1
1
1
1
1
1
1
1
1
1
1
1
1
1
1
1
1
1
1
1
1
1
1
1
1
1
1
1
1
1
1
1
1
1.00046
1
1
1
1
1
1
1
1
1
1
1
1
1
1
1
1
1
1
1
1
1
1
1
1
1
1
1
1
1
1
1
1
1
1
1
1
1
1
1
1
1
1
1
1
1
1
1
1
1
1
1
1
1
1
1
1
1
1
1
1
1
1
1
1
1
1
1
1
1
1
1
1
1
1
1
1
1
1
1
1.00001
1
1
1
1
1
1
1
1
1
1
1
1
1
1
1
1
1
1
1
1
1
1
1
1
1
1
1
1
1
1
1
1
1
1
1
1
1
1
1
1
1
1
1
1
1
1
1
1
1
1
1
1
1
1
1
1
1
1
1
1
1
1
1
1
1
1
1
1
1
1
1
1
1
1
1
1
1
1
1
1
1
1
1
1
1
1
1
1
1
1
1
1
1
1
1
1
1
1
1
1
1
1
1
1
1
1
1
1
1
1
1
1
1
1
1
1
1
1
1
1
1
1
1
1
1
1
1
1
1
1
1
1
1
1
1
1
1
1
1
1
1
1
1
1
1
1
1
1
1
1
1
1
1
1
1
1
1
1
1
1
1
1
1
1
1
1
1
1
1
1
1
1
1
1
1
1
1
1
1
1
1
1
1
1
1
1
1
1
1
1
1
1
1
1
1
1
1
1
1
1
1
1
1
1
1
1
1
1
1
1
1
1
1
1
1
1
1
1
1
1
1
1
1
1
1
1
1
1
1
1
1
1
1
1
1
1
1
1
1
1
1
1
1
1
1
1
1
1
1
1
1
1
1
1
1
1
1
1
1
1
1
1
1
1
1
1
1
1
1
1
1
1
1
1
1
1
1
1
1
1
1
1
1
1
1
1
1
1
1
1
1
1
1
1
1
1
1
1
1
1
1
1
1
1
1
1
1
1
1
1
1
1
1
1
1
1
1
1
1
1
1
1
1
1
1
1
1
1
1
1
1
1
1
1
1
1
1
1
1
1
1
1
1
1
1
1
1
1
1
1
1
1
1
1
1
1
1
1
1
1
1
1
1
1
1
1
1
1
1
1
1
1
1
1
1
1
1
1
1
1
1
1
1
1
1
1
1
1
1
1
1
1
1
1
1
1
1
1
1
1
)
;

boundaryField
{
    inlet
    {
        type            fixedValue;
        value           uniform 1;
    }
    outlet
    {
        type            zeroGradient;
    }
    bottom
    {
        type            symmetryPlane;
    }
    top
    {
        type            symmetryPlane;
    }
    obstacle
    {
        type            zeroGradient;
    }
    defaultFaces
    {
        type            empty;
    }
}


// ************************************************************************* //
