/*--------------------------------*- C++ -*----------------------------------*\
| =========                 |                                                 |
| \\      /  F ield         | OpenFOAM: The Open Source CFD Toolbox           |
|  \\    /   O peration     | Version:  2206                                  |
|   \\  /    A nd           | Website:  www.openfoam.com                      |
|    \\/     M anipulation  |                                                 |
\*---------------------------------------------------------------------------*/
FoamFile
{
    version     2.0;
    format      ascii;
    arch        "LSB;label=32;scalar=64";
    class       volScalarField;
    location    "0.12";
    object      p;
}
// * * * * * * * * * * * * * * * * * * * * * * * * * * * * * * * * * * * * * //

dimensions      [1 -1 -2 0 0 0 0];

internalField   nonuniform List<scalar> 
4800
(
1
1
1
1
1
1
1
1
1
1
1
1
1
1
1
1
1
1
1
1
1
1
1
1
1
1
1
1
1
1
1
1
1
1
1
1
1
1
1
1
1
1
1
1
1
1
1
1
1
1
1
1
1
1
1
1
1
1
1
1
1
1
1
1
1
1
1
1
1
1
1
1
1
1
1
1
1
1
1
1
1
1
1
1
1
1
1
1
1
1
1
1
1
1
1
1
1
1
1
1
1
1
1
1
1
1
1
1
1
1
1
1
1
1
1
1
1
1
1
1
1
1
1
1
1
1
1
1
1
1
1
1
1
1
1
1
1
1
1
1
1
1
1
1
1
1
1
1
1
1
1
1
1
1
1
1
1
1
1
1
1
1
1
1
1
1
1
1
1
1
1
1
1
1
1
1
1
1
1
1
1
1
1
1
1
1
1
1
1
1
1
1
1
1
1
1
1
1
1
1
1
1
1
1
1
1
1
1
1
1
1
1
1
1
1
1
1
1
1
1
1
1
1
1
1
1
1
1
1
1
1
1
1
1
1
1
1
1
1
1
1
1
1
1
1
1
1
1
1
1
1
1
1
1
1
1
1
1
1
1
1
1
1
1
1
1
1
1
1
1
1
1
1
1
1
1
1
1
1
1
1
1
1
1
1
1
1
1
1
1
1
1
1
1
1
1
1
1
1
1
1
1
1
1
1
1
1
1
1
1
1
1
1
1
1
1
1
1
1
1
1
1
1
1
1
1
1
1
1
1
1
1
1
1
1
1
1
1
1
1
1
1
1
1
1
1
1
1
1
1
1
1
1
1
1
1
1
1
1
1
1
1
1
1
1
1
1
1
1
1
1
1
1
1
1
1
1
1
1
1
1
1
1
1
1
1
1
1
1
1
1
1
1
1
1
1
1
1
1
1
1
1
1
1
1
1
1
1
1
1
1
1
1
1
1
1
1
1
1
1
1
1
1
1
1
1
1
1
1
1
1
1
1
1
1
1
1
1
1
1
1
1
1
1
1
1
1
1
1
1
1
1
1
1
1
1
1
1
1
1
1
1
1
1
1
1
1
1
1
1
1
1
1
1
1
1
1
1
1
1
1
1
1
1
1
1
1
1
1
1
1
1
1
1
1
1
1
1
1
1
1
1
1
1
1
1
1
1
1
1
1
1
1
1
1
1
1
1
1
1
1
1
1
1
1
1
1
1
1
1
1
1
1
1
1
1
1
1
1
1
1
1
1
1
1
1
1
1
1
1
1
1
1
1
1
1
1
1
1
1
1
1
1
1
1
1
1
1
1
1
1
1
1
1
1
1
1
1
1
1
1
1
1
1
1
1
1
1
1
1
1
1
1
1
1
1
1
1
1
1
1
1
1
1
1
1
1
1
1
1
1
1
1
1
1
1
1
1
1
1
1
1
1
1
1
1
1
1
1
1
1
1
1
1
1
1
1
1
1
1
1
1
1
1
1
1
1
1
1
1
1
1
1
1
1
1
1
1
1
1
1
1
1
1
1
1
1
1
1
1
1
1
1
1
1
1
1
1
1
1
1
1
1
1
1
1
1
1
1
1
1
1
1
1
1
1
1
1
1
1
1
1
1
1
1
1
1
1
1
1
1
1
1
1
1
1
1
1
1
1
1
1
1
1
1
1
1
1
1
1
1
1
1
1
1
1
1
1
1
1
1
1
1
1
1
1
1
1
1
1
1
1
1
1
1
1
1
1
1
1
1
1
1
1
1
1
1
1
1
1
1
1
1
1
1
1
1
1
1
1
1
1
1
1
1
1
1
1
1
1
1
1
1
1
1
1
1
1
1
1
1
1
1
1
1
1
1
1
1
1
1
1
1
1
1
1
1
1
1
1
1
1
1
1
1
1
1
1
1
1
1
1
1
1
1
1
1
1
1
1
1
1
1
1
1
1
1
1
1
1
1
1
1
1
1
1
1
1
1
1
1
1
1
1
1
1
1
1
1
1
1
1
1
1
1
1
1
1
1
1
1
1
1
1
1
1
1
1
1
1
1
1
1
1
1
1
1
1
1
1
1
1
1
1
1
1
1
1
1
1
1
1
1
1
1
1
1
1
1
1
1
1
1
1
1
1
1
1
1
1
1
1
1
1
1
1
1
1
1
1
1
1
1
1
1
1
1
1
1
1
1
1
1
1
1
1
1
1
1
1
1
1
1
1
1
1
1
1
1
1
1
1
1
1
1
1
1
1
1
1
1
1
1
1
1
1
1
1
1
1
1
1
1
1
1
1
1
1
1
1
1
1
1
1
1
1
1
1
1
1
1
1
1
1
1
1
1
1
1
1
1
1
1
1
1
1
1
1
1
1
1
1
1
1
1
1
1
1
1
1
1
1
1
1
1
1
1
1
1
1
1
1
1
1
1
1
1
1
1
1
1
1
1
1
1
1
1
1
1
1
1
1
1
1
1
1
1
1
1
1
1
1
1
1
1
1
1
1
1
1
1
1
1
1
1
1
1
1
1
1
1
1
1
1
1
1
1
1
1
1
1
1
1
1
1
1
1
1
1
1
1
1
1
1
1
1
1
1
1
1
1
1
1
1
1
1
1
1
1
1
1
1
1
1
1
1
1
1
1
1
1
1
1
1
1
1
1
1
1
1
1
1
1
1
1
1
1
1
1
1
1
1
1
1
1
1
1
1
1
1
1
1
1
1
1
1
1
1
1
1
1
1
1
1
1
1
1
1
1
1
1
1
1
1
1
1
1
1
1
1
1
1
1
1
1
1
1
1
1
1
1
1
1
1
1
1
1
1
1
1
1
1
1
1
1
1
1
1
1
1
1
1
1
1
1
1
1
1
1
1
1
1
1
1
1
1
1
1
1
1
1
1
1
1
1
1
1
1
1
1
1
1
1
1
1
1
1
1
1
1
1
1
1
1
1
1
1
1
1
1
1
1
1
1
1
1
1
1
1
1
1
1
1
1
1
1
1
1
1
1
1
1
1
1
1
1
1
1
1
1
1
1
1
1
1
1
1
1
1
1
1
1
1
1
1
1
1
1
1
1
1
1
1
1
1
1
1
1
1
1
1
1
1
1
1
1
1
1
1
1
1
1
1
1
1
1
1
1
1
1
1
1
1
1
1
1
1
1
1
1
1
1
1
1
1
1
1
1
1
1
1
1
1
1
1
1
1
1
1
1
1
1
1
1
1
1
1
1
1
1
1
1
1
1
1
1
1
1
1
1
1
1
1
1
1
1
1
1
1
1
1
1
1
1
1
1
1
1
1
1
1
1
1
1
1
1
1
1
1
1
1
1
1
1
1
1
1
1
1
1
1
1
1
1
1
1
1
1
1
1
1
1
1
1
1
1
1
1
1
1
1
1
1
1
1
1
1
1
1
1
1
1
1
1
1
1
1
1
1
1
1
1
1
1
1
1
1
1
1
1
1
1
1
1
1
1
1
1
1
1
1
1
1
1
1
1
1
1
1
1
1
1
1
1
1
1
1
1
1
1
1
1
1
1
1
1
1
1
1
1
1
1
1
1
1
1
1
1
1
1
1
1
1
1
1
1
1
1
1
1
1
1
1
1
1
1
1
1
1
1
1
1
1
1
1
1
1
1
1
1
1
1
1
1
1
1
1
1
1
1
1.27214
1.67944
2.1881
2.76254
3.20754
3.72816
4.20828
4.46953
4.80986
4.91977
4.86099
4.67094
4.34413
3.99619
3.75957
3.56593
3.39489
3.38475
3.40005
3.41904
3.44119
3.46881
3.49462
3.51679
3.53802
3.55509
3.56495
3.56683
3.5707
3.58344
3.59313
3.59533
3.59316
3.58622
3.57701
3.56927
3.56488
3.56537
3.56691
3.56741
3.56881
3.57443
3.58353
3.5892
3.5914
3.59251
3.59339
3.59362
3.59374
3.59446
3.59545
3.59555
3.59453
3.59293
3.5905
3.58747
3.58537
3.58548
3.58625
3.58733
3.58894
3.59054
3.59092
3.59093
3.5907
3.59023
3.58974
3.58963
3.59017
3.58858
3.58389
3.57547
3.56256
3.54508
3.52414
3.50057
3.47448
3.44877
3.43757
3.43074
1.00139
1.0202
1.04775
1.13577
1.32282
1.52319
1.86115
2.21976
2.63293
2.993
3.31585
3.54231
3.62944
3.82082
3.86947
3.82797
3.69858
3.66435
3.64849
3.6068
3.56733
3.51466
3.48628
3.48521
3.49649
3.52055
3.54117
3.55121
3.56012
3.5729
3.58177
3.58465
3.58469
3.58164
3.57913
3.58234
3.58602
3.58723
3.58617
3.58226
3.57772
3.57604
3.57579
3.57606
3.57545
3.57523
3.57624
3.5787
3.58263
3.5875
3.59137
3.59264
3.59246
3.59249
3.59322
3.5939
3.59334
3.59367
3.5949
3.59714
3.59815
3.59802
3.59734
3.59569
3.59248
3.58893
3.58737
3.58639
3.58549
3.58338
3.57832
3.56895
3.55484
3.53686
3.51624
3.49287
3.46803
3.44459
3.43291
3.42662
0.999999
1.00001
0.999998
0.999969
1.0009
1.0048
1.02494
1.08637
1.2171
1.52073
1.95521
2.63726
3.29507
3.78296
4.06462
4.04945
3.99946
3.93457
3.87225
3.75569
3.62565
3.52917
3.48109
3.48472
3.49318
3.5102
3.53778
3.54298
3.54038
3.54138
3.5471
3.55525
3.56419
3.57409
3.58331
3.59309
3.60009
3.60205
3.601
3.59652
3.59047
3.58534
3.58041
3.57559
3.57196
3.56984
3.56955
3.57078
3.57335
3.57708
3.58062
3.58363
3.58597
3.58803
3.59016
3.5923
3.59484
3.59709
3.59932
3.6018
3.60361
3.60362
3.60299
3.60109
3.5974
3.59341
3.5901
3.58793
3.58604
3.58326
3.57771
3.56768
3.55268
3.53361
3.51233
3.48921
3.46521
3.44289
3.43042
3.42486
1
1
1
0.999999
0.999999
0.999994
1.00001
1.00003
1.00022
1.00484
1.0285
1.15068
1.52422
2.0685
2.85095
3.27227
3.64191
3.75295
3.74339
3.7631
3.77581
3.74874
3.65988
3.62102
3.59155
3.57232
3.55064
3.51512
3.50435
3.50483
3.51338
3.52864
3.54457
3.55841
3.57075
3.58434
3.59672
3.60429
3.60679
3.60533
3.60145
3.59599
3.59001
3.58566
3.58146
3.57791
3.57673
3.57807
3.58006
3.58173
3.5818
3.58134
3.58145
3.58161
3.58263
3.58461
3.58675
3.5893
3.5934
3.59937
3.60437
3.60539
3.60499
3.60314
3.59924
3.59523
3.59263
3.59073
3.58877
3.58567
3.57951
3.5689
3.55333
3.5335
3.51109
3.48716
3.4636
3.44214
3.42784
3.42259
1
1
1
1
1
1
1
1
0.999999
1
0.999991
1.00004
1.00512
1.03843
1.22714
1.66784
2.23015
2.90394
3.32224
3.73895
3.8569
3.84423
3.81188
3.76064
3.70571
3.61721
3.57563
3.53791
3.52051
3.51532
3.51873
3.5257
3.54205
3.54994
3.55352
3.55863
3.56452
3.57202
3.57828
3.58211
3.58574
3.58856
3.59111
3.59342
3.59229
3.59032
3.58965
3.59107
3.59391
3.59433
3.59303
3.59091
3.58928
3.58734
3.5853
3.58495
3.58524
3.58573
3.58702
3.58987
3.59407
3.59535
3.59495
3.59371
3.59079
3.58903
3.58777
3.58678
3.58659
3.58429
3.57808
3.56732
3.55174
3.53222
3.51071
3.48731
3.46509
3.44456
3.43001
3.42312
1
1
1
1
1
1
1
1
1
1
1
0.999999
1
0.999971
1.00051
1.01193
1.06444
1.31999
1.8118
2.44503
3.01297
3.31672
3.59457
3.60582
3.61539
3.64502
3.6675
3.65194
3.61611
3.59539
3.57668
3.56388
3.55433
3.54233
3.53601
3.54026
3.54965
3.55681
3.56168
3.56471
3.56798
3.5717
3.57737
3.58482
3.59033
3.59113
3.59174
3.59319
3.59682
3.60019
3.60149
3.60036
3.59916
3.59704
3.59285
3.58932
3.58721
3.58552
3.58446
3.58506
3.58779
3.58861
3.5881
3.58694
3.58473
3.58352
3.58283
3.58279
3.58402
3.58217
3.57588
3.56489
3.54904
3.52831
3.50604
3.48367
3.46215
3.44335
3.43202
3.42477
1
1
1
1
1
1
1
1
1
1
1
1
1
0.999999
0.999998
1.00001
0.99999
1.00184
1.02509
1.11618
1.46
1.97554
2.64832
3.09814
3.38682
3.64303
3.67791
3.68128
3.6741
3.65323
3.61806
3.58728
3.57384
3.56379
3.55996
3.55417
3.54698
3.54733
3.54969
3.5536
3.5602
3.56545
3.56785
3.56927
3.57096
3.57311
3.57608
3.57928
3.58314
3.58798
3.59341
3.59705
3.59777
3.59742
3.59408
3.59031
3.58884
3.58798
3.58899
3.59151
3.59368
3.59436
3.59412
3.59335
3.59169
3.58961
3.58835
3.58784
3.58767
3.58502
3.5778
3.56599
3.54924
3.52721
3.50336
3.48051
3.45727
3.43979
3.43254
3.42598
1
1
1
1
1
1
1
1
1
1
1
1
1
1
1
1
1
1
0.99999
1.00015
1.0062
1.04671
1.19454
1.64972
2.19883
2.87694
3.16703
3.38456
3.50685
3.53196
3.56752
3.60429
3.6086
3.60051
3.59237
3.58759
3.58483
3.58279
3.58013
3.57641
3.57457
3.57698
3.57718
3.57371
3.56955
3.56601
3.56541
3.56729
3.56927
3.57096
3.57404
3.57924
3.58449
3.58758
3.58992
3.59142
3.59242
3.59357
3.59592
3.59887
3.60087
3.60127
3.60082
3.59965
3.59812
3.59545
3.59249
3.5913
3.58982
3.58598
3.57767
3.5646
3.54666
3.52328
3.49905
3.47536
3.45049
3.43784
3.43348
3.42727
1
1
1
1
1
1
1
1
1
1
1
1
1
1
1
1
1
1
0.999999
0.999999
1
1.00001
1.00079
1.0184
1.09271
1.33878
1.87215
2.50652
3.08801
3.2722
3.44951
3.56118
3.58333
3.5768
3.57032
3.58354
3.59127
3.58879
3.58319
3.58411
3.58883
3.60139
3.61211
3.61011
3.59852
3.58307
3.57242
3.57137
3.57142
3.56897
3.56644
3.56815
3.57396
3.57879
3.58115
3.58216
3.58392
3.58665
3.59126
3.5972
3.60149
3.60262
3.60233
3.60066
3.59755
3.59339
3.59008
3.58845
3.5868
3.5827
3.57385
3.56009
3.54155
3.5176
3.49325
3.46853
3.4448
3.43488
3.43159
3.42607
1
1
1
1
1
1
1
1
1
1
1
1
1
1
1
1
1
1
1
1
1
1
1
0.999994
1.00017
1.00371
1.04768
1.17971
1.58345
2.18102
2.81179
3.23356
3.35417
3.44217
3.45761
3.48144
3.52241
3.55437
3.57161
3.57415
3.5763
3.58458
3.59903
3.60574
3.60675
3.60531
3.60278
3.60167
3.60213
3.59739
3.5869
3.57918
3.57582
3.57698
3.57946
3.5803
3.57964
3.57958
3.58235
3.58761
3.59254
3.59402
3.59405
3.59294
3.59123
3.59015
3.58874
3.58773
3.58624
3.58203
3.57321
3.55978
3.54172
3.5184
3.49348
3.46958
3.44514
3.43292
3.42909
3.42461
1
1
1
1
1
1
1
1
1
1
1
1
1
1
1
1
1
1
1
1
1
1
1
0.999999
0.999999
0.999995
1.00005
1.00099
1.01707
1.11533
1.34398
1.86378
2.49241
3.17462
3.38419
3.42432
3.50268
3.5034
3.51598
3.51655
3.50762
3.51085
3.53385
3.56542
3.58165
3.58772
3.5939
3.60474
3.6132
3.6135
3.6101
3.60699
3.60263
3.59793
3.59449
3.59114
3.58592
3.58152
3.58069
3.58346
3.58807
3.58928
3.58862
3.58709
3.58619
3.58585
3.58549
3.58521
3.58357
3.57939
3.57125
3.55864
3.54104
3.51866
3.49445
3.47276
3.44897
3.43115
3.426
3.42196
1
1
1
1
1
1
1
1
1
1
1
1
1
1
1
1
1
1
1
1
1
1
1
1
1
1
1
1
0.999998
1.00045
1.00458
1.05745
1.23125
1.6776
2.28817
2.89985
3.34847
3.47688
3.51835
3.5305
3.5002
3.5002
3.5042
3.5176
3.53407
3.53808
3.54541
3.56101
3.57832
3.59708
3.60654
3.60758
3.60858
3.60679
3.60344
3.60222
3.59878
3.59474
3.59285
3.59199
3.59114
3.59086
3.5895
3.58662
3.58415
3.58268
3.58248
3.58294
3.5812
3.57712
3.56941
3.55726
3.53963
3.51625
3.49285
3.47364
3.4537
3.43208
3.42432
3.4201
1
1
1
1
1
1
1
1
1
1
1
1
1
1
1
1
1
1
1
1
1
1
1
1
1
1
1
1
1
1
0.999995
1.00015
1.00239
1.02701
1.18083
1.49306
2.07342
2.70041
3.27221
3.49028
3.52335
3.57424
3.57575
3.55261
3.54111
3.53279
3.52832
3.53235
3.5411
3.55437
3.56753
3.57537
3.58234
3.58985
3.59483
3.59641
3.59288
3.59182
3.59364
3.59707
3.59821
3.5972
3.59594
3.59356
3.59107
3.58971
3.58907
3.58696
3.58321
3.57825
3.5702
3.5571
3.53752
3.51331
3.49012
3.47251
3.45693
3.43969
3.42499
3.41781
1
1
1
1
1
1
1
1
1
1
1
1
1
1
1
1
1
1
1
1
1
1
1
1
1
1
1
1
1
1
0.999999
0.999999
0.999997
1.00002
1.00163
1.01285
1.11019
1.39365
1.94903
2.57093
3.12688
3.44167
3.55823
3.58784
3.61092
3.60267
3.58534
3.57259
3.56049
3.55359
3.55544
3.56025
3.56409
3.56769
3.5698
3.57204
3.57634
3.58315
3.58879
3.59238
3.59382
3.59273
3.59224
3.59187
3.59152
3.59265
3.59456
3.59332
3.58877
3.58221
3.57265
3.55786
3.53649
3.51048
3.48623
3.46913
3.45481
3.44122
3.43188
3.42135
1
1
1
1
1
1
1
1
1
1
1
1
1
1
1
1
1
1
1
1
1
1
1
1
1
1
1
1
1
1
1
1
1
1
1
0.999998
1.00076
1.0087
1.07677
1.37818
1.87912
2.47603
3.01326
3.4057
3.55214
3.58066
3.60064
3.62344
3.6272
3.61916
3.60403
3.58948
3.58321
3.57913
3.57478
3.56984
3.56937
3.57431
3.57907
3.58353
3.58533
3.58539
3.58463
3.58506
3.58701
3.58992
3.59242
3.59155
3.58798
3.58175
3.57132
3.55491
3.53251
3.50546
3.47964
3.46319
3.44941
3.43639
3.43111
3.42323
1
1
1
1
1
1
1
1
1
1
1
1
1
1
1
1
1
1
1
1
1
1
1
1
1
1
1
1
1
1
1
1
1
1
1
1
1
0.999998
1.00046
1.00943
1.05751
1.31679
1.84051
2.50646
2.96806
3.30938
3.47723
3.57597
3.61384
3.62649
3.62376
3.61571
3.61484
3.61336
3.60803
3.59953
3.59418
3.59113
3.58842
3.58865
3.58886
3.58746
3.58408
3.58353
3.58523
3.5876
3.58862
3.58734
3.5846
3.57926
3.56903
3.55189
3.52874
3.49994
3.47123
3.45542
3.44237
3.43185
3.42929
3.42368
1
1
1
1
1
1
1
1
1
1
1
1
1
1
1
1
1
1
1
1
1
1
1
1
1
1
1
1
1
1
1
1
1
1
1
1
1
1
1
1
1.00025
1.00818
1.05419
1.28935
1.85171
2.60282
3.01922
3.28224
3.44254
3.51939
3.5464
3.56354
3.58577
3.59659
3.59774
3.60055
3.60414
3.60664
3.60601
3.60475
3.60273
3.59794
3.59183
3.59013
3.5908
3.59166
3.59007
3.58696
3.58402
3.57978
3.57071
3.55383
3.5306
3.50102
3.4677
3.44882
3.43566
3.42896
3.42695
3.42227
1
1
1
1
1
1
1
1
1
1
1
1
1
1
1
1
1
1
1
1
1
1
1
1
1
1
1
1
1
1
1
1
1
1
1
1
1
1
1
1
1
1
1.00023
1.00771
1.06783
1.30764
1.88516
2.6572
3.21957
3.36662
3.46094
3.47312
3.51115
3.53224
3.5354
3.54593
3.56582
3.58411
3.59688
3.59994
3.59789
3.5939
3.58986
3.58886
3.58954
3.59027
3.58842
3.58463
3.58117
3.57769
3.56978
3.55448
3.53405
3.50782
3.47509
3.45279
3.43635
3.42831
3.42542
3.42054
1
1
1
1
1
1
1
1
1
1
1
1
1
1
1
1
1
1
1
1
1
1
1
1
1
1
1
1
1
1
1
1
1
1
1
1
1
1
1
1
1
1
1
1.00001
1.00042
1.0082
1.08797
1.34975
1.96738
2.75142
3.32002
3.4731
3.53855
3.53721
3.52611
3.53636
3.55337
3.56698
3.57656
3.58162
3.58089
3.57875
3.57969
3.58187
3.58309
3.58454
3.5838
3.58101
3.57824
3.57585
3.56915
3.55451
3.53465
3.50893
3.47974
3.4564
3.43972
3.43024
3.42487
3.41907
1
1
1
1
1
1
1
1
1
1
1
1
1
1
1
1
1
1
1
1
1
1
1
1
1
1
1
1
1
1
1
1
1
1
1
1
1
1
1
1
1
1
1
1
0.999999
1.00001
1.0008
1.01047
1.11692
1.46132
2.15702
2.89384
3.3608
3.56036
3.57985
3.60669
3.61574
3.61241
3.59983
3.58903
3.58404
3.58047
3.58076
3.5825
3.58248
3.58351
3.5828
3.57976
3.57637
3.57281
3.56461
3.54852
3.52755
3.50549
3.4798
3.45917
3.44482
3.43306
3.42418
3.41552
1
1
1
1
1
1
1
1
1
1
1
1
1
1
1
1
1
1
1
1
1
1
1
1
1
1
1
1
1
1
1
1
1
1
1
1
1
1
1
1
1
1
1
1
1
1
0.999999
1.00002
1.00165
1.01933
1.1906
1.65191
2.34754
2.97994
3.39452
3.55812
3.60213
3.62013
3.62552
3.61449
3.6032
3.59828
3.59566
3.59373
3.59383
3.59605
3.59601
3.59309
3.58803
3.58083
3.56807
3.54793
3.52506
3.50007
3.47423
3.45606
3.44509
3.43354
3.42435
3.41152
1
1
1
1
1
1
1
1
1
1
1
1
1
1
1
1
1
1
1
1
1
1
1
1
1
1
1
1
1
1
1
1
1
1
1
1
1
1
1
1
1
1
1
1
1
1
1
1
0.999999
1.00007
1.0044
1.03813
1.2711
1.90923
2.72758
3.13254
3.34895
3.49292
3.5687
3.5715
3.57418
3.57766
3.58152
3.5876
3.59396
3.59907
3.60293
3.60387
3.60056
3.59326
3.57976
3.55801
3.52969
3.49771
3.46821
3.44999
3.44109
3.43332
3.42931
3.41797
1
1
1
1
1
1
1
1
1
1
1
1
1
1
1
1
1
1
1
1
1
1
1
1
1
1
1
1
1
1
1
1
1
1
1
1
1
1
1
1
1
1
1
1
1
1
1
1
1
1
1
1.00024
1.01018
1.09359
1.45204
2.19315
3.05787
3.39853
3.48308
3.51173
3.52224
3.53623
3.55036
3.5607
3.56736
3.57123
3.5781
3.58943
3.5926
3.58958
3.57862
3.55821
3.53323
3.50227
3.46507
3.44111
3.43413
3.43081
3.42898
3.42231
1
1
1
1
1
1
1
1
1
1
1
1
1
1
1
1
1
1
1
1
1
1
1
1
1
1
1
1
1
1
1
1
1
1
1
1
1
1
1
1
1
1
1
1
1
1
1
1
1
1
1
1
1.00003
1.00122
1.02613
1.2037
1.74666
2.59532
3.24821
3.54812
3.5768
3.60129
3.6029
3.59263
3.57479
3.56519
3.56335
3.56964
3.57005
3.56739
3.56244
3.55215
3.53315
3.50525
3.46706
3.43192
3.41897
3.41765
3.42317
3.42062
1
1
1
1
1
1
1
1
1
1
1
1
1
1
1
1
1
1
1
1
1
1
1
1
1
1
1
1
1
1
1
1
1
1
1
1
1
1
1
1
1
1
1
1
1
1
1
1
1
1
1
1
1
0.999999
1.0002
1.00525
1.07457
1.44058
2.1598
2.91241
3.37562
3.58483
3.63195
3.63751
3.63229
3.62355
3.61028
3.59278
3.57661
3.56275
3.55592
3.54696
3.53162
3.51087
3.47737
3.43559
3.41096
3.40233
3.40161
3.40632
1
1
1
1
1
1
1
1
1
1
1
1
1
1
1
1
1
1
1
1
1
1
1
1
1
1
1
1
1
1
1
1
1
1
1
1
1
1
1
1
1
1
1
1
1
1
1
1
1
1
1
1
1
1
1
1.00001
1.00126
1.02253
1.20696
1.81049
2.65131
3.20542
3.41356
3.5383
3.59312
3.62275
3.62911
3.62205
3.59908
3.57395
3.55657
3.54741
3.53688
3.52154
3.49987
3.46792
3.43114
3.40284
3.38897
3.38515
1
1
1
1
1
1
1
1
1
1
1
1
1
1
1
1
1
1
1
1
1
1
1
1
1
1
1
1
1
1
1
1
1
1
1
1
1
1
1
1
1
1
1
1
1
1
1
1
1
1
1
1
1
1
1
1
1
1.00016
1.00751
1.0832
1.49396
2.42846
3.12174
3.33044
3.44682
3.54078
3.5791
3.59156
3.58809
3.5695
3.54038
3.52251
3.51596
3.5136
3.50522
3.48982
3.47183
3.44333
3.40526
3.38053
1
1
1
1
1
1
1
1
1
1
1
1
1
1
1
1
1
1
1
1
1
1
1
1
1
1
1
1
1
1
1
1
1
1
1
1
1
1
1
1
1
1
1
1
1
1
1
1
1
1
1
1
1
1
1
1
1
1
1.00003
1.0016
1.04134
1.29535
2.02612
2.89417
3.45467
3.5385
3.5614
3.57117
3.57406
3.56124
3.52824
3.49895
3.47976
3.46687
3.46335
3.47618
3.47543
3.46071
3.44333
3.40934
1
1
1
1
1
1
1
1
1
1
1
1
1
1
1
1
1
1
1
1
1
1
1
1
1
1
1
1
1
1
1
1
1
1
1
1
1
1
1
1
1
1
1
1
1
1
1
1
1
1
1
1
1
1
1
1
1
1
1
1
1.00059
1.01414
1.1791
1.70466
2.61445
3.286
3.58213
3.63046
3.63282
3.62699
3.5959
3.55091
3.49814
3.45579
3.43619
3.42642
3.42992
3.44481
3.44307
3.42277
1
1
1
1
1
1
1
1
1
1
1
1
1
1
1
1
1
1
1
1
1
1
1
1
1
1
1
1
1
1
1
1
1
1
1
1
1
1
1
1
1
1
1
1
1
1
1
1
1
1
1
1
1
1
1
1
1
1
1
1
1
1.00012
1.00594
1.07906
1.5253
2.42775
3.10315
3.38324
3.53185
3.60762
3.62352
3.61864
3.5888
3.53253
3.46374
3.41879
3.40391
3.40211
3.41105
3.41372
1
1
1
1
1
1
1
1
1
1
1
1
1
1
1
1
1
1
1
1
1
1
1
1
1
1
1
1
1
1
1
1
1
1
1
1
1
1
1
1
1
1
1
1
1
1
1
1
1
1
1
1
1
1
1
1
1
1
1
1
1
1
1.00003
1.00207
1.04422
1.34912
2.23478
3.08757
3.2801
3.41472
3.52368
3.59212
3.60342
3.58923
3.54777
3.48905
3.43263
3.39103
3.37839
3.37394
1
1
1
1
1
1
1
1
1
1
1
1
1
1
1
1
1
1
1
1
1
1
1
1
1
1
1
1
1
1
1
1
1
1
1
1
1
1
1
1
1
1
1
1
1
1
1
1
1
1
1
1
1
1
1
1
1
1
1
1
1
1
1
1.00001
1.00083
1.02493
1.25635
2.02124
3.05328
3.31294
3.37052
3.44737
3.51451
3.55152
3.54946
3.52535
3.48467
3.43738
3.38862
3.35944
1
1
1
1
1
1
1
1
1
1
1
1
1
1
1
1
1
1
1
1
1
1
1
1
1
1
1
1
1
1
1
1
1
1
1
1
1
1
1
1
1
1
1
1
1
1
1
1
1
1
1
1
1
1
1
1
1
1
1
1
1
1
1
1
1
1.0004
1.01614
1.18107
1.8654
2.8826
3.39826
3.40946
3.41728
3.43887
3.46805
3.47804
3.4728
3.45689
3.44048
3.40208
1
1
1
1
1
1
1
1
1
1
1
1
1
1
1
1
1
1
1
1
1
1
1
1
1
1
1
1
1
1
1
1
1
1
1
1
1
1
1
1
1
1
1
1
1
1
1
1
1
1
1
1
1
1
1
1
1
1
1
1
1
1
1
1
1
1
1.00021
1.00947
1.13197
1.7464
2.73876
3.40014
3.49557
3.4647
3.4154
3.39094
3.37924
3.3926
3.43103
3.42951
1
1
1
1
1
1
1
1
1
1
1
1
1
1
1
1
1
1
1
1
1
1
1
1
1
1
1
1
1
1
1
1
1
1
1
1
1
1
1
1
1
1
1
1
1
1
1
1
1
1
1
1
1
1
1
1
1
1
1
1
1
1
1
1
1
1
1
1.00012
1.00547
1.11401
1.6282
2.59266
3.31704
3.51194
3.5195
3.45737
3.36245
3.33525
3.34283
3.3939
1
1
1
1
1
1
1
1
1
1
1
1
1
1
1
1
1
1
1
1
1
1
1
1
1
1
1
1
1
1
1
1
1
1
1
1
1
1
1
1
1
1
1
1
1
1
1
1
1
1
1
1
1
1
1
1
1
1
1
1
1
1
1
1
1
1
1
1
1.00007
1.00429
1.08703
1.59157
2.44855
3.19917
3.494
3.50395
3.47018
3.36811
3.31533
3.33868
1
1
1
1
1
1
1
1
1
1
1
1
1
1
1
1
1
1
1
1
1
1
1
1
1
1
1
1
1
1
1
1
1
1
1
1
1
1
1
1
1
1
1
1
1
1
1
1
1
1
1
1
1
1
1
1
1
1
1
1
1
1
1
1
1
1
1
1
1
1.00004
1.00355
1.06855
1.51312
2.39099
3.0727
3.46426
3.47101
3.45236
3.34269
3.36772
1
1
1
1
1
1
1
1
1
1
1
1
1
1
1
1
1
1
1
1
1
1
1
1
1
1
1
1
1
1
1
1
1
1
1
1
1
1
1
1
1
1
1
1
1
1
1
1
1
1
1
1
1
1
1
1
1
1
1
1
1
1
1
1
1
1
1
1
1
1
1.00003
1.00242
1.05756
1.47298
2.27306
3.09358
3.39008
3.4369
3.45592
4.16969
1
1
1
1
1
1
1
1
1
1
1
1
1
1
1
1
1
1
1
1
1
1
1
1
1
1
1
1
1
1
1
1
1
1
1
1
1
1
1
1
1
1
1
1
1
1
1
1
1
1
1
1
1
1
1
1
1
1
1
1
1
1
1
1
1
1
1
1
1
1
1
1.00002
1.00216
1.04765
1.43496
2.33435
2.94649
3.59781
4.23514
6.20109
1
1
1
1
1
1
1
1
1
1
1
1
1
1
1
1
1
1
1
1
1
1
1
1
1
1
1
1
1
1
1
1
1
1
1
1
1
1
1
1
1
1
1
1
1
1
1
1
1
1
1
1
1
1
1
1
1
1
1
1
1
1
1
1
1
1
1
1
1
1
1
1
1.00002
1.00156
1.05771
1.41657
2.74085
4.67166
7.0404
9.33875
)
;

boundaryField
{
    inlet
    {
        type            fixedValue;
        value           uniform 1;
    }
    outlet
    {
        type            zeroGradient;
    }
    bottom
    {
        type            symmetryPlane;
    }
    top
    {
        type            symmetryPlane;
    }
    obstacle
    {
        type            zeroGradient;
    }
    defaultFaces
    {
        type            empty;
    }
}


// ************************************************************************* //
