/*--------------------------------*- C++ -*----------------------------------*\
| =========                 |                                                 |
| \\      /  F ield         | OpenFOAM: The Open Source CFD Toolbox           |
|  \\    /   O peration     | Version:  2206                                  |
|   \\  /    A nd           | Website:  www.openfoam.com                      |
|    \\/     M anipulation  |                                                 |
\*---------------------------------------------------------------------------*/
FoamFile
{
    version     2.0;
    format      ascii;
    arch        "LSB;label=32;scalar=64";
    class       volScalarField;
    location    "0.12";
    object      rho;
}
// * * * * * * * * * * * * * * * * * * * * * * * * * * * * * * * * * * * * * //

dimensions      [1 -3 0 0 0 0 0];

internalField   nonuniform List<scalar> 
4800
(
1.40001
1.40001
1.40001
1.40001
1.40001
1.40001
1.40001
1.40001
1.40001
1.40001
1.40001
1.40001
1.40001
1.40001
1.40001
1.40001
1.40001
1.40001
1.40001
1.40001
1.40001
1.40001
1.40001
1.40001
1.40001
1.40001
1.40001
1.40001
1.40001
1.40001
1.40001
1.40001
1.40001
1.40001
1.40001
1.40001
1.40001
1.40001
1.40001
1.40001
1.40001
1.40001
1.40001
1.40001
1.40001
1.40001
1.40001
1.40001
1.40001
1.40001
1.40001
1.40001
1.40001
1.40001
1.40001
1.40001
1.40001
1.40001
1.40001
1.40001
1.40001
1.40001
1.40001
1.40001
1.40001
1.40001
1.40001
1.40001
1.40001
1.40001
1.40001
1.40001
1.40001
1.40001
1.40001
1.40001
1.40001
1.40001
1.40001
1.40001
1.40001
1.40001
1.40001
1.40001
1.40001
1.40001
1.40001
1.40001
1.40001
1.40001
1.40001
1.40001
1.40001
1.40001
1.40001
1.40001
1.40001
1.40001
1.40001
1.40001
1.40001
1.40001
1.40001
1.40001
1.40001
1.40001
1.40001
1.40001
1.40001
1.40001
1.40001
1.40001
1.40001
1.40001
1.40001
1.40001
1.40001
1.40001
1.40001
1.40001
1.40001
1.40001
1.40001
1.40001
1.40001
1.40001
1.40001
1.40001
1.40001
1.40001
1.40001
1.40001
1.40001
1.40001
1.40001
1.40001
1.40001
1.40001
1.40001
1.40001
1.40001
1.40001
1.40001
1.40001
1.40001
1.40001
1.40001
1.40001
1.40001
1.40001
1.40001
1.40001
1.40001
1.40001
1.40001
1.40001
1.40001
1.40001
1.40001
1.40001
1.40001
1.40001
1.40001
1.40001
1.40001
1.40001
1.40001
1.40001
1.40001
1.40001
1.40001
1.40001
1.40001
1.40001
1.40001
1.40001
1.40001
1.40001
1.40001
1.40001
1.40001
1.40001
1.40001
1.40001
1.40001
1.40001
1.40001
1.40001
1.40001
1.40001
1.40001
1.40001
1.40001
1.40001
1.40001
1.40001
1.40001
1.40001
1.40001
1.40001
1.40001
1.40001
1.40001
1.40001
1.40001
1.40001
1.40001
1.40001
1.40001
1.40001
1.40001
1.40001
1.40001
1.40001
1.40001
1.40001
1.40001
1.40001
1.40001
1.40001
1.40001
1.40001
1.40001
1.40001
1.40001
1.40001
1.40001
1.40001
1.40001
1.40001
1.40001
1.40001
1.40001
1.40001
1.40001
1.40001
1.40001
1.40001
1.40001
1.40001
1.40001
1.40001
1.40001
1.40001
1.40001
1.40001
1.40001
1.40001
1.40001
1.40001
1.40001
1.40001
1.40001
1.40001
1.40001
1.40001
1.40001
1.40001
1.40001
1.40001
1.40001
1.40001
1.40001
1.40001
1.40001
1.40001
1.40001
1.40001
1.40001
1.40001
1.40001
1.40001
1.40001
1.40001
1.40001
1.40001
1.40001
1.40001
1.40001
1.40001
1.40001
1.40001
1.40001
1.40001
1.40001
1.40001
1.40001
1.40001
1.40001
1.40001
1.40001
1.40001
1.40001
1.40001
1.40001
1.40001
1.40001
1.40001
1.40001
1.40001
1.40001
1.40001
1.40001
1.40001
1.40001
1.40001
1.40001
1.40001
1.40001
1.40001
1.40001
1.40001
1.40001
1.40001
1.40001
1.40001
1.40001
1.40001
1.40001
1.40001
1.40001
1.40001
1.40001
1.40001
1.40001
1.40001
1.40001
1.40001
1.40001
1.40001
1.40001
1.40001
1.40001
1.40001
1.40001
1.40001
1.40001
1.40001
1.40001
1.40001
1.40001
1.40001
1.40001
1.40001
1.40001
1.40001
1.40001
1.40001
1.40001
1.40001
1.40001
1.40001
1.40001
1.40001
1.40001
1.40001
1.40001
1.40001
1.40001
1.40001
1.40001
1.40001
1.40001
1.40001
1.40001
1.40001
1.40001
1.40001
1.40001
1.40001
1.40001
1.40001
1.40001
1.40001
1.40001
1.40001
1.40001
1.40001
1.40001
1.40001
1.40001
1.40001
1.40001
1.40001
1.40001
1.40001
1.40001
1.40001
1.40001
1.40001
1.40001
1.40001
1.40001
1.40001
1.40001
1.40001
1.40001
1.40001
1.40001
1.40001
1.40001
1.40001
1.40001
1.40001
1.40001
1.40001
1.40001
1.40001
1.40001
1.40001
1.40001
1.40001
1.40001
1.40001
1.40001
1.40001
1.40001
1.40001
1.40001
1.40001
1.40001
1.40001
1.40001
1.40001
1.40001
1.40001
1.40001
1.40001
1.40001
1.40001
1.40001
1.40001
1.40001
1.40001
1.40001
1.40001
1.40001
1.40001
1.40001
1.40001
1.40001
1.40001
1.40001
1.40001
1.40001
1.40001
1.40001
1.40001
1.40001
1.40001
1.40001
1.40001
1.40001
1.40001
1.40001
1.40001
1.40001
1.40001
1.40001
1.40001
1.40001
1.40001
1.40001
1.40001
1.40001
1.40001
1.40001
1.40001
1.40001
1.40001
1.40001
1.40001
1.40001
1.40001
1.40001
1.40001
1.40001
1.40001
1.40001
1.40001
1.40001
1.40001
1.40001
1.40001
1.40001
1.40001
1.40001
1.40001
1.40001
1.40001
1.40001
1.40001
1.40001
1.40001
1.40001
1.40001
1.40001
1.40001
1.40001
1.40001
1.40001
1.40001
1.40001
1.40001
1.40001
1.40001
1.40001
1.40001
1.40001
1.40001
1.40001
1.40001
1.40001
1.40001
1.40001
1.40001
1.40001
1.40001
1.40001
1.40001
1.40001
1.40001
1.40001
1.40001
1.40001
1.40001
1.40001
1.40001
1.40001
1.40001
1.40001
1.40001
1.40001
1.40001
1.40001
1.40001
1.40001
1.40001
1.40001
1.40001
1.40001
1.40001
1.40001
1.40001
1.40001
1.40001
1.40001
1.40001
1.40001
1.40001
1.40001
1.40001
1.40001
1.40001
1.40001
1.40001
1.40001
1.40001
1.40001
1.40001
1.40001
1.40001
1.40001
1.40001
1.40001
1.40001
1.40001
1.40001
1.40001
1.40001
1.40001
1.40001
1.40001
1.40001
1.40001
1.40001
1.40001
1.40001
1.40001
1.40001
1.40001
1.40001
1.40001
1.40001
1.40001
1.40001
1.40001
1.40001
1.40001
1.40001
1.40001
1.40001
1.40001
1.40001
1.40001
1.40001
1.40001
1.40001
1.40001
1.40001
1.40001
1.40001
1.40001
1.40001
1.40001
1.40001
1.40001
1.40001
1.40001
1.40001
1.40001
1.40001
1.40001
1.40001
1.40001
1.40001
1.40001
1.40001
1.40001
1.40001
1.40001
1.40001
1.40001
1.40001
1.40001
1.40001
1.40001
1.40001
1.40001
1.40001
1.40001
1.40001
1.40001
1.40001
1.40001
1.40001
1.40001
1.40001
1.40001
1.40001
1.40001
1.40001
1.40001
1.40001
1.40001
1.40001
1.40001
1.40001
1.40001
1.40001
1.40001
1.40001
1.40001
1.40001
1.40001
1.40001
1.40001
1.40001
1.40001
1.40001
1.40001
1.40001
1.40001
1.40001
1.40001
1.40001
1.40001
1.40001
1.40001
1.40001
1.40001
1.40001
1.40001
1.40001
1.40001
1.40001
1.40001
1.40001
1.40001
1.40001
1.40001
1.40001
1.40001
1.40001
1.40001
1.40001
1.40001
1.40001
1.40001
1.40001
1.40001
1.40001
1.40001
1.40001
1.40001
1.40001
1.40001
1.40001
1.40001
1.40001
1.40001
1.40001
1.40001
1.40001
1.40001
1.40001
1.40001
1.40001
1.40001
1.40001
1.40001
1.40001
1.40001
1.40001
1.40001
1.40001
1.40001
1.40001
1.40001
1.40001
1.40001
1.40001
1.40001
1.40001
1.40001
1.40001
1.40001
1.40001
1.40001
1.40001
1.40001
1.40001
1.40001
1.40001
1.40001
1.40001
1.40001
1.40001
1.40001
1.40001
1.40001
1.40001
1.40001
1.40001
1.40001
1.40001
1.40001
1.40001
1.40001
1.40001
1.40001
1.40001
1.40001
1.40001
1.40001
1.40001
1.40001
1.40001
1.40001
1.40001
1.40001
1.40001
1.40001
1.40001
1.40001
1.40001
1.40001
1.40001
1.40001
1.40001
1.40001
1.40001
1.40001
1.40001
1.40001
1.40001
1.40001
1.40001
1.40001
1.40001
1.40001
1.40001
1.40001
1.40001
1.40001
1.40001
1.40001
1.40001
1.40001
1.40001
1.40001
1.40001
1.40001
1.40001
1.40001
1.40001
1.40001
1.40001
1.40001
1.40001
1.40001
1.40001
1.40001
1.40001
1.40001
1.40001
1.40001
1.40001
1.40001
1.40001
1.40001
1.40001
1.40001
1.40001
1.40001
1.40001
1.40001
1.40001
1.40001
1.40001
1.40001
1.40001
1.40001
1.40001
1.40001
1.40001
1.40001
1.40001
1.40001
1.40001
1.40001
1.40001
1.40001
1.40001
1.40001
1.40001
1.40001
1.40001
1.40001
1.40001
1.40001
1.40001
1.40001
1.40001
1.40001
1.40001
1.40001
1.40001
1.40001
1.40001
1.40001
1.40001
1.40001
1.40001
1.40001
1.40001
1.40001
1.40001
1.40001
1.40001
1.40001
1.40001
1.40001
1.40001
1.40001
1.40001
1.40001
1.40001
1.40001
1.40001
1.40001
1.40001
1.40001
1.40001
1.40001
1.40001
1.40001
1.40001
1.40001
1.40001
1.40001
1.40001
1.40001
1.40001
1.40001
1.40001
1.40001
1.40001
1.40001
1.40001
1.40001
1.40001
1.40001
1.40001
1.40001
1.40001
1.40001
1.40001
1.40001
1.40001
1.40001
1.40001
1.40001
1.40001
1.40001
1.40001
1.40001
1.40001
1.40001
1.40001
1.40001
1.40001
1.40001
1.40001
1.40001
1.40001
1.40001
1.40001
1.40001
1.40001
1.40001
1.40001
1.40001
1.40001
1.40001
1.40001
1.40001
1.40001
1.40001
1.40001
1.40001
1.40001
1.40001
1.40001
1.40001
1.40001
1.40001
1.40001
1.40001
1.40001
1.40001
1.40001
1.40001
1.40001
1.40001
1.40001
1.40001
1.40001
1.40001
1.40001
1.40001
1.40001
1.40001
1.40001
1.40001
1.40001
1.40001
1.40001
1.40001
1.40001
1.40001
1.40001
1.40001
1.40001
1.40001
1.40001
1.40001
1.40001
1.40001
1.40001
1.40001
1.40001
1.40001
1.40001
1.40001
1.40001
1.40001
1.40001
1.40001
1.40001
1.40001
1.40001
1.40001
1.40001
1.40001
1.40001
1.40001
1.40001
1.40001
1.40001
1.40001
1.40001
1.40001
1.40001
1.40001
1.40001
1.40001
1.40001
1.40001
1.40001
1.40001
1.40001
1.40001
1.40001
1.40001
1.40001
1.40001
1.40001
1.40001
1.40001
1.40001
1.40001
1.40001
1.40001
1.40001
1.40001
1.40001
1.40001
1.40001
1.40001
1.40001
1.40001
1.40001
1.40001
1.40001
1.40001
1.40001
1.40001
1.40001
1.40001
1.40001
1.40001
1.40001
1.40001
1.40001
1.40001
1.40001
1.40001
1.40001
1.40001
1.40001
1.40001
1.40001
1.40001
1.40001
1.40001
1.40001
1.40001
1.40001
1.40001
1.40001
1.40001
1.40001
1.40001
1.40001
1.40001
1.40001
1.40001
1.40001
1.40001
1.40001
1.40001
1.40001
1.40001
1.40001
1.40001
1.40001
1.40001
1.40001
1.40001
1.40001
1.40001
1.40001
1.40001
1.40001
1.40001
1.40001
1.40001
1.40001
1.40001
1.40001
1.40001
1.40001
1.40001
1.40001
1.40001
1.40001
1.40001
1.40001
1.40001
1.40001
1.40001
1.40001
1.40001
1.40001
1.40001
1.40001
1.40001
1.40001
1.40001
1.40001
1.40001
1.40001
1.40001
1.40001
1.40001
1.40001
1.40001
1.40001
1.40001
1.40001
1.40001
1.40001
1.40001
1.40001
1.40001
1.40001
1.40001
1.40001
1.40001
1.40001
1.40001
1.40001
1.40001
1.40001
1.40001
1.40001
1.40001
1.40001
1.40001
1.40001
1.40001
1.40001
1.40001
1.40001
1.40001
1.40001
1.40001
1.40001
1.40001
1.40001
1.40001
1.40001
1.40001
1.40001
1.40001
1.40001
1.40001
1.40001
1.40001
1.40001
1.40001
1.40001
1.40001
1.40001
1.40001
1.40001
1.40001
1.40001
1.40001
1.40001
1.40001
1.40001
1.40001
1.40001
1.40001
1.40001
1.40001
1.40001
1.40001
1.40001
1.40001
1.40001
1.40001
1.40001
1.40001
1.40001
1.40001
1.40001
1.40001
1.40001
1.40001
1.40001
1.40001
1.40001
1.40001
1.40001
1.40001
1.40001
1.40001
1.40001
1.40001
1.40001
1.40001
1.40001
1.40001
1.40001
1.40001
1.40001
1.40001
1.40001
1.40001
1.40001
1.40001
1.40001
1.40001
1.40001
1.40001
1.40001
1.40001
1.40001
1.40001
1.40001
1.40001
1.40001
1.40001
1.40001
1.40001
1.40001
1.40001
1.40001
1.40001
1.40001
1.40001
1.40001
1.40001
1.40001
1.40001
1.40001
1.40001
1.40001
1.40001
1.40001
1.40001
1.40001
1.40001
1.40001
1.40001
1.40001
1.40001
1.40001
1.40001
1.40001
1.40001
1.40001
1.40001
1.40001
1.40001
1.40001
1.40001
1.40001
1.40001
1.40001
1.40001
1.40001
1.40001
1.40001
1.40001
1.40001
1.40001
1.40001
1.40001
1.40001
1.40001
1.40001
1.40001
1.40001
1.40001
1.40001
1.40001
1.40001
1.40001
1.40001
1.40001
1.40001
1.40001
1.40001
1.40001
1.40001
1.40001
1.40001
1.40001
1.40001
1.40001
1.40001
1.40001
1.40001
1.40001
1.40001
1.40001
1.40001
1.40001
1.40001
1.40001
1.40001
1.40001
1.40001
1.40001
1.40001
1.40001
1.40001
1.40001
1.40001
1.40001
1.40001
1.40001
1.40001
1.40001
1.40001
1.40001
1.40001
1.40001
1.40001
1.40001
1.40001
1.40001
1.40001
1.40001
1.40001
1.40001
1.40001
1.40001
1.40001
1.40001
1.40001
1.40001
1.40001
1.40001
1.40001
1.40001
1.40001
1.40001
1.40001
1.40001
1.40001
1.40001
1.40001
1.40001
1.40001
1.40001
1.40001
1.40001
1.40001
1.40001
1.40001
1.40001
1.40001
1.40001
1.40001
1.40001
1.40001
1.40001
1.40001
1.40001
1.40001
1.40001
1.40001
1.40001
1.40001
1.40001
1.40001
1.40001
1.40001
1.40001
1.40001
1.40001
1.40001
1.40001
1.40001
1.40001
1.40001
1.40001
1.40001
1.40001
1.40001
1.40001
1.40001
1.40001
1.40001
1.40001
1.40001
1.40001
1.40001
1.40001
1.40001
1.40001
1.40001
1.40001
1.40001
1.40001
1.40001
1.40001
1.40001
1.40001
1.40001
1.40001
1.40001
1.40001
1.40001
1.40001
1.40001
1.40001
1.40001
1.40001
1.40001
1.40001
1.40001
1.40001
1.40001
1.40001
1.40001
1.40001
1.40001
1.40001
1.40001
1.40001
1.40001
1.40001
1.40001
1.40001
1.40001
1.40001
1.40001
1.40001
1.40001
1.40001
1.40001
1.40001
1.40001
1.40001
1.40001
1.40001
1.40001
1.40001
1.40001
1.40001
1.40001
1.40001
1.40001
1.40001
1.40001
1.40001
1.40001
1.40001
1.40001
1.40001
1.40001
1.40001
1.40001
1.40001
1.40001
1.40001
1.40001
1.40001
1.40001
1.40001
1.40001
1.40001
1.40001
1.40001
1.40001
1.40001
1.40001
1.40001
1.40001
1.40001
1.40001
1.40001
1.40001
1.40001
1.40001
1.40001
1.40001
1.40001
1.40001
1.40001
1.40001
1.40001
1.40001
1.40001
1.40001
1.40001
1.40001
1.40001
1.40001
1.40001
1.40001
1.40001
1.40001
1.40001
1.40001
1.40001
1.40001
1.40001
1.40001
1.40001
1.40001
1.40001
1.40001
1.40001
1.40001
1.40001
1.40001
1.40001
1.40001
1.40001
1.40001
1.40001
1.40001
1.40001
1.40001
1.40001
1.40001
1.40001
1.40001
1.40001
1.40001
1.40001
1.40001
1.40001
1.40001
1.40001
1.40001
1.40001
1.40001
1.40001
1.40001
1.40001
1.40001
1.40001
1.40001
1.40001
1.40001
1.40001
1.40001
1.40001
1.40001
1.40001
1.40001
1.40001
1.40001
1.40001
1.40001
1.40001
1.40001
1.40001
1.40001
1.40001
1.40001
1.40001
1.40001
1.40001
1.40001
1.40001
1.40001
1.40001
1.40001
1.40001
1.40001
1.40001
1.40001
1.40001
1.40001
1.40001
1.40001
1.40001
1.40001
1.40001
1.40001
1.40001
1.40001
1.40001
1.40001
1.40001
1.40001
1.40001
1.40001
1.40001
1.40001
1.40001
1.40001
1.40001
1.40001
1.40001
1.40001
1.40001
1.40001
1.40001
1.40001
1.40001
1.40001
1.40001
1.40001
1.40001
1.40001
1.40001
1.40001
1.40001
1.40001
1.40001
1.65945
2.01924
2.42575
2.84389
3.14005
3.4719
3.75971
3.90564
4.10329
4.15366
4.11852
4.00347
3.80604
3.5898
3.4374
3.31182
3.19629
3.18778
3.19728
3.20934
3.22371
3.24108
3.25661
3.26932
3.28213
3.29258
3.29882
3.30013
3.30254
3.31028
3.31539
3.31635
3.31487
3.31023
3.30398
3.29828
3.2945
3.29403
3.29408
3.29408
3.29487
3.29845
3.30408
3.30742
3.30872
3.30941
3.31006
3.31035
3.31039
3.31064
3.31077
3.31041
3.30934
3.30785
3.30585
3.3035
3.30172
3.30152
3.30183
3.30256
3.3037
3.30481
3.30502
3.3049
3.30458
3.30417
3.30377
3.30372
3.30409
3.30305
3.2999
3.29416
3.28535
3.27351
3.25945
3.24379
3.22657
3.20965
3.20195
3.19694
1.40133
1.41864
1.4432
1.51857
1.67353
1.84173
2.11362
2.39566
2.71668
2.98075
3.2069
3.35348
3.40343
3.5029
3.50488
3.47491
3.38548
3.35916
3.34727
3.32005
3.29436
3.25888
3.23906
3.23816
3.24552
3.26119
3.27528
3.28188
3.28719
3.29474
3.30048
3.30282
3.30303
3.30123
3.29937
3.30119
3.30272
3.30286
3.30204
3.29948
3.29663
3.2954
3.29498
3.29481
3.29428
3.29413
3.29489
3.29675
3.29947
3.30254
3.30468
3.30519
3.30482
3.30457
3.30478
3.30495
3.30431
3.30437
3.30514
3.30683
3.30774
3.30777
3.30745
3.30639
3.30419
3.30178
3.30079
3.30021
3.29967
3.29832
3.29496
3.28866
3.27912
3.26698
3.25319
3.23773
3.22143
3.2061
3.19812
3.19356
1.4
1.40001
1.4
1.39997
1.40082
1.4044
1.42267
1.47717
1.58981
1.83832
2.17727
2.66836
3.10241
3.40251
3.57705
3.57045
3.54401
3.50693
3.46826
3.39325
3.30808
3.24301
3.21276
3.2163
3.22309
3.23495
3.25353
3.25503
3.25291
3.25393
3.25903
3.26599
3.27289
3.27975
3.28561
3.2916
3.29621
3.29783
3.2975
3.29543
3.29213
3.28894
3.28581
3.28282
3.28074
3.27972
3.27983
3.28098
3.28299
3.2855
3.28777
3.2898
3.29149
3.29296
3.29442
3.2958
3.29745
3.29906
3.30085
3.30302
3.30476
3.30521
3.30519
3.3042
3.30183
3.29932
3.29741
3.2963
3.29529
3.29364
3.29014
3.28363
3.27374
3.26109
3.24703
3.23191
3.21638
3.20193
3.19356
3.18983
1.40001
1.40001
1.4
1.4
1.4
1.4
1.40002
1.40003
1.4002
1.40436
1.42503
1.52492
1.80685
2.20451
2.74963
3.0412
3.27871
3.36325
3.36162
3.37241
3.37696
3.35875
3.30208
3.27935
3.26143
3.24977
3.23587
3.21101
3.2066
3.20892
3.21598
3.22744
3.23829
3.24686
3.25459
3.26433
3.2743
3.28049
3.28263
3.28212
3.27994
3.27651
3.27316
3.27149
3.27016
3.26892
3.2686
3.26981
3.27157
3.27308
3.27351
3.2739
3.27474
3.2754
3.27637
3.27794
3.27957
3.28161
3.28498
3.28991
3.2942
3.2955
3.29578
3.29495
3.29257
3.29029
3.28922
3.28864
3.28789
3.28631
3.28274
3.27623
3.26637
3.25359
3.23907
3.22368
3.20868
3.19504
3.18566
3.18266
1.40001
1.40001
1.40001
1.40001
1.40001
1.4
1.4
1.4
1.4
1.40001
1.4
1.40004
1.40447
1.43259
1.5829
1.91608
2.32658
2.78955
3.06785
3.32163
3.40324
3.39789
3.38144
3.35211
3.31824
3.26149
3.23289
3.20638
3.19962
3.2006
3.20396
3.20934
3.21999
3.22331
3.22584
3.2308
3.23722
3.24433
3.24935
3.25131
3.25287
3.25473
3.25717
3.2601
3.26111
3.26133
3.26138
3.26245
3.26475
3.26542
3.26537
3.2653
3.26544
3.26502
3.26404
3.26399
3.26446
3.2653
3.267
3.27009
3.27416
3.2758
3.27604
3.27563
3.27409
3.27361
3.27368
3.27396
3.27454
3.27368
3.27035
3.26401
3.25445
3.24218
3.22857
3.21381
3.19999
3.18729
3.17804
3.17445
1.40001
1.40001
1.40001
1.40001
1.40001
1.40001
1.40001
1.40001
1.40001
1.40001
1.4
1.4
1.40001
1.39998
1.40047
1.41048
1.45488
1.6578
2.02633
2.47974
2.8663
3.07032
3.24941
3.25325
3.25814
3.27499
3.28683
3.27687
3.25642
3.24643
3.23578
3.22731
3.22017
3.21079
3.20806
3.21197
3.21989
3.22628
3.23012
3.2312
3.23224
3.23481
3.23955
3.24591
3.25085
3.25224
3.25281
3.25375
3.25626
3.25907
3.26065
3.26109
3.26139
3.26073
3.25829
3.25614
3.25514
3.2547
3.25482
3.25612
3.25894
3.26009
3.26011
3.25978
3.25883
3.25872
3.25916
3.26004
3.26148
3.26076
3.25739
3.25101
3.2414
3.22852
3.21462
3.20071
3.18751
3.17615
3.16927
3.16566
1.40001
1.40001
1.40001
1.40001
1.40001
1.40001
1.40001
1.40001
1.40001
1.40001
1.40001
1.40001
1.40001
1.4
1.4
1.40001
1.4
1.40167
1.42202
1.49831
1.76918
2.15562
2.64066
2.93788
3.12303
3.27593
3.30064
3.30463
3.30083
3.28775
3.26444
3.24356
3.23344
3.2261
3.22462
3.22253
3.21857
3.21876
3.21996
3.22184
3.2256
3.2296
3.2321
3.23416
3.23587
3.23715
3.23857
3.24032
3.24307
3.24697
3.25152
3.25481
3.25582
3.25576
3.25348
3.25104
3.25057
3.25068
3.25189
3.2542
3.25618
3.25687
3.25692
3.25681
3.25621
3.25536
3.25514
3.25534
3.25558
3.25423
3.25004
3.24298
3.23275
3.21906
3.20412
3.18986
3.17547
3.16491
3.16075
3.15748
1.40001
1.40001
1.40001
1.40001
1.40001
1.40001
1.40001
1.40001
1.40001
1.40001
1.40001
1.40001
1.40001
1.40001
1.4
1.4
1.4
1.40001
1.4
1.40015
1.40563
1.4409
1.56382
1.91738
2.32348
2.79875
2.98958
3.13299
3.20877
3.21876
3.23776
3.25874
3.26036
3.25508
3.25143
3.25083
3.24945
3.24682
3.2433
3.23981
3.2387
3.2407
3.24161
3.23988
3.23682
3.23349
3.23212
3.2327
3.2344
3.23635
3.23924
3.24328
3.24656
3.24797
3.24901
3.25003
3.25101
3.25232
3.25435
3.25675
3.25836
3.25871
3.25855
3.25811
3.2575
3.25607
3.25436
3.25375
3.2529
3.25054
3.24538
3.23727
3.2261
3.21136
3.19598
3.18094
3.16526
3.1577
3.15529
3.15191
1.40001
1.40001
1.40001
1.40001
1.40001
1.40001
1.40001
1.40001
1.40001
1.40001
1.40001
1.40001
1.40001
1.40001
1.40001
1.40001
1.40001
1.40001
1.4
1.4
1.40001
1.40002
1.40074
1.41655
1.48027
1.68199
2.08947
2.55242
2.95368
3.06831
3.18159
3.2446
3.25326
3.24949
3.24777
3.25782
3.26237
3.2591
3.25275
3.25192
3.25427
3.26262
3.27051
3.26948
3.26167
3.25014
3.24144
3.24019
3.24041
3.2395
3.23832
3.23939
3.24234
3.24404
3.24491
3.2456
3.24699
3.24911
3.25239
3.2563
3.25901
3.25972
3.25958
3.25872
3.25697
3.25444
3.25222
3.25104
3.24985
3.24712
3.24143
3.23265
3.22084
3.2055
3.18986
3.17398
3.1588
3.15286
3.151
3.14768
1.40001
1.40001
1.40001
1.40001
1.40001
1.40001
1.40001
1.40001
1.40001
1.40001
1.40001
1.40001
1.40001
1.40001
1.40001
1.40001
1.40001
1.40001
1.40001
1.4
1.4
1.4
1.40001
1.4
1.40017
1.40344
1.44228
1.55316
1.87555
2.31998
2.77116
3.05242
3.12676
3.18319
3.19034
3.20253
3.22683
3.24495
3.25298
3.25338
3.25426
3.25989
3.27028
3.27443
3.2738
3.27086
3.26762
3.26672
3.26737
3.26487
3.25846
3.25265
3.24915
3.24815
3.24856
3.24893
3.24846
3.24835
3.24989
3.25261
3.25507
3.25583
3.25585
3.25519
3.25408
3.25322
3.25195
3.25092
3.24971
3.24682
3.24105
3.23237
3.22073
3.20571
3.18958
3.17405
3.15822
3.15059
3.14829
3.14549
1.40001
1.40001
1.40001
1.40001
1.40001
1.40001
1.40001
1.40001
1.40001
1.40001
1.40001
1.40001
1.40001
1.40001
1.40001
1.40001
1.40001
1.40001
1.40001
1.40001
1.40001
1.40001
1.40001
1.4
1.4
1.4
1.40005
1.40093
1.41557
1.49969
1.68813
2.0935
2.54767
3.01474
3.15141
3.17902
3.23075
3.22551
3.2268
3.22573
3.21968
3.22217
3.23775
3.2572
3.26512
3.26714
3.26999
3.27654
3.28276
3.28327
3.2813
3.27811
3.27343
3.2686
3.26538
3.2627
3.2591
3.25577
3.25466
3.25522
3.25678
3.25701
3.25645
3.25517
3.25421
3.25338
3.25215
3.25105
3.24963
3.24661
3.24109
3.23275
3.22124
3.20665
3.19075
3.17643
3.1609
3.14954
3.1463
3.14364
1.40001
1.40001
1.40001
1.40001
1.40001
1.40001
1.40001
1.40001
1.40001
1.40001
1.40001
1.40001
1.40001
1.40001
1.40001
1.40001
1.40001
1.40001
1.40001
1.40001
1.40001
1.40001
1.40001
1.40001
1.40001
1.4
1.4
1.40001
1.4
1.40043
1.40424
1.45154
1.59684
1.95005
2.40588
2.83081
3.13885
3.22085
3.24208
3.24662
3.22639
3.22625
3.22845
3.23592
3.24432
3.24469
3.24747
3.25626
3.2675
3.28036
3.28633
3.28588
3.28468
3.28183
3.2788
3.27768
3.27524
3.27174
3.26947
3.26735
3.26509
3.26413
3.26297
3.26069
3.25846
3.25655
3.25475
3.25352
3.25189
3.24872
3.24318
3.23476
3.22278
3.20706
3.19135
3.1785
3.16537
3.15156
3.14655
3.14317
1.40001
1.40001
1.40001
1.40001
1.40001
1.40001
1.40001
1.40001
1.40001
1.40001
1.40001
1.40001
1.40001
1.40001
1.40001
1.40001
1.40001
1.40001
1.40001
1.40001
1.40001
1.40001
1.40001
1.40001
1.40001
1.40001
1.40001
1.40001
1.4
1.40001
1.4
1.40015
1.40224
1.42458
1.55531
1.80746
2.2536
2.70455
3.08337
3.22369
3.24644
3.28186
3.28365
3.26809
3.25761
3.24928
3.24432
3.24606
3.25236
3.262
3.26962
3.27233
3.2743
3.27738
3.28009
3.28109
3.27854
3.27716
3.27725
3.27752
3.27681
3.27554
3.2744
3.27235
3.26989
3.2677
3.26521
3.26213
3.25885
3.25488
3.24886
3.23945
3.22574
3.20902
3.19303
3.18083
3.17036
3.15936
3.14969
3.14358
1.40001
1.40001
1.40001
1.40001
1.40001
1.40001
1.40001
1.40001
1.40001
1.40001
1.40001
1.40001
1.40001
1.40001
1.40001
1.40001
1.40001
1.40001
1.40001
1.40001
1.40001
1.40001
1.40001
1.40001
1.40001
1.40001
1.40001
1.40001
1.40001
1.40001
1.4
1.4
1.4
1.40003
1.40153
1.41178
1.49724
1.7298
2.1621
2.61282
2.98689
3.19584
3.27769
3.29555
3.30673
3.29972
3.28721
3.27936
3.27277
3.2685
3.26872
3.26922
3.26925
3.27009
3.27097
3.27233
3.27479
3.27837
3.28048
3.28082
3.28081
3.27968
3.27901
3.27827
3.27724
3.27647
3.27552
3.27329
3.26926
3.26397
3.25679
3.24608
3.23088
3.21258
3.19551
3.18331
3.17345
3.16455
3.15791
3.14931
1.40001
1.40001
1.40001
1.40001
1.40001
1.40001
1.40001
1.40001
1.40001
1.40001
1.40001
1.40001
1.40001
1.40001
1.40001
1.40001
1.40001
1.40001
1.40001
1.40001
1.40001
1.40001
1.40001
1.40001
1.40001
1.40001
1.40001
1.40001
1.40001
1.40001
1.40001
1.4
1.4
1.4
1.40001
1.4
1.40073
1.40804
1.46886
1.71665
2.10987
2.54833
2.92369
3.17776
3.26772
3.28635
3.30117
3.31804
3.32073
3.31514
3.30407
3.29226
3.28634
3.28288
3.27983
3.27678
3.27632
3.27856
3.27975
3.28093
3.28133
3.28103
3.28003
3.27994
3.28053
3.28079
3.28046
3.27889
3.27561
3.2704
3.26254
3.25072
3.23473
3.21554
3.19717
3.18516
3.17559
3.16692
3.16248
3.15516
1.40001
1.40001
1.40001
1.40001
1.40001
1.40001
1.40001
1.40001
1.40001
1.40001
1.40001
1.40001
1.40001
1.40001
1.40001
1.40001
1.40001
1.40001
1.40001
1.40001
1.40001
1.40001
1.40001
1.40001
1.40001
1.40001
1.40001
1.40001
1.40001
1.40001
1.40001
1.40001
1.40001
1.4
1.4
1.4
1.40001
1.4
1.40045
1.40871
1.45181
1.66949
2.08056
2.57215
2.89004
3.11463
3.22081
3.28731
3.31398
3.32195
3.31946
3.3124
3.31038
3.30844
3.30471
3.29989
3.29627
3.29321
3.28985
3.28848
3.28821
3.28717
3.28462
3.28411
3.28467
3.28452
3.28363
3.28203
3.27945
3.27494
3.26724
3.25498
3.23857
3.21825
3.1979
3.1862
3.17722
3.16986
3.16711
3.161
1.40001
1.40001
1.40001
1.40001
1.40001
1.40001
1.40001
1.40001
1.40001
1.40001
1.40001
1.40001
1.40001
1.40001
1.40001
1.40001
1.40001
1.40001
1.40001
1.40001
1.40001
1.40001
1.40001
1.40001
1.40001
1.40001
1.40001
1.40001
1.40001
1.40001
1.40001
1.40001
1.40001
1.40001
1.40001
1.40001
1.40001
1.4
1.40001
1.40001
1.40025
1.40764
1.44869
1.6485
2.08692
2.64019
2.92274
3.10227
3.20687
3.25262
3.26766
3.27736
3.29172
3.29948
3.3012
3.30388
3.30615
3.30636
3.30386
3.30165
3.2999
3.29669
3.29312
3.29212
3.29206
3.29114
3.28908
3.28637
3.28382
3.28033
3.27355
3.26156
3.24524
3.22455
3.20126
3.18751
3.17857
3.17347
3.17123
3.16582
1.40001
1.40001
1.40001
1.40001
1.40001
1.40001
1.40001
1.40001
1.40001
1.40001
1.40001
1.40001
1.40001
1.40001
1.40001
1.40001
1.40001
1.40001
1.40001
1.40001
1.40001
1.40001
1.40001
1.40001
1.40001
1.40001
1.40001
1.40001
1.40001
1.40001
1.40001
1.40001
1.40001
1.40001
1.40001
1.40001
1.40001
1.40001
1.40001
1.4
1.4
1.40001
1.40023
1.40727
1.46069
1.66367
2.11406
2.67493
3.06166
3.15542
3.21259
3.21864
3.24337
3.25939
3.2626
3.26977
3.28177
3.29204
3.29886
3.30023
3.29868
3.2963
3.29438
3.29383
3.29371
3.29284
3.29093
3.28786
3.28524
3.28263
3.27695
3.26623
3.2519
3.2335
3.21068
3.19478
3.18352
3.17786
3.17515
3.16992
1.40001
1.40001
1.40001
1.40001
1.40001
1.40001
1.40001
1.40001
1.40001
1.40001
1.40001
1.40001
1.40001
1.40001
1.40001
1.40001
1.40001
1.40001
1.40001
1.40001
1.40001
1.40001
1.40001
1.40001
1.40001
1.40001
1.40001
1.40001
1.40001
1.40001
1.40001
1.40001
1.40001
1.40001
1.40001
1.40001
1.40001
1.40001
1.40001
1.40001
1.4
1.40001
1.4
1.40001
1.40041
1.40771
1.47852
1.6979
2.17907
2.7337
3.11315
3.21829
3.26423
3.26438
3.25802
3.26439
3.27367
3.28064
3.28626
3.28966
3.28934
3.28855
3.2895
3.29117
3.29121
3.2908
3.28982
3.28763
3.28561
3.2839
3.27925
3.26922
3.25547
3.23763
3.21741
3.20107
3.18942
3.18303
3.17892
3.1731
1.40001
1.40001
1.40001
1.40001
1.40001
1.40001
1.40001
1.40001
1.40001
1.40001
1.40001
1.40001
1.40001
1.40001
1.40001
1.40001
1.40001
1.40001
1.40001
1.40001
1.40001
1.40001
1.40001
1.40001
1.40001
1.40001
1.40001
1.40001
1.40001
1.40001
1.40001
1.40001
1.40001
1.40001
1.40001
1.40001
1.40001
1.40001
1.40001
1.40001
1.40001
1.40001
1.4
1.4
1.4
1.40001
1.40077
1.4098
1.50425
1.78771
2.31333
2.83384
3.14392
3.27738
3.29204
3.31012
3.31272
3.30979
3.30135
3.29482
3.29234
3.29086
3.2914
3.29277
3.29192
3.29116
3.29032
3.28805
3.28573
3.2834
3.27801
3.26727
3.25288
3.23751
3.21972
3.20532
3.19547
3.18794
3.18206
3.17408
1.40001
1.40001
1.40001
1.40001
1.40001
1.40001
1.40001
1.40001
1.40001
1.40001
1.40001
1.40001
1.40001
1.40001
1.40001
1.40001
1.40001
1.40001
1.40001
1.40001
1.40001
1.40001
1.40001
1.40001
1.40001
1.40001
1.40001
1.40001
1.40001
1.40001
1.40001
1.40001
1.40001
1.40001
1.40001
1.40001
1.40001
1.40001
1.40001
1.40001
1.40001
1.40001
1.40001
1.40001
1.4
1.4
1.4
1.40002
1.40159
1.41794
1.56653
1.93681
2.45726
2.89749
3.17086
3.27309
3.30101
3.31429
3.31829
3.31163
3.30498
3.3026
3.3014
3.29997
3.2993
3.2996
3.29934
3.29726
3.29403
3.2896
3.2816
3.26845
3.25291
3.23557
3.21735
3.20448
3.19734
3.19045
3.18471
3.17437
1.40001
1.40001
1.40001
1.40001
1.40001
1.40001
1.40001
1.40001
1.40001
1.40001
1.40001
1.40001
1.40001
1.40001
1.40001
1.40001
1.40001
1.40001
1.40001
1.40001
1.40001
1.40001
1.40001
1.40001
1.40001
1.40001
1.40001
1.40001
1.40001
1.40001
1.40001
1.40001
1.40001
1.40001
1.40001
1.40001
1.40001
1.40001
1.40001
1.40001
1.40001
1.40001
1.40001
1.40001
1.40001
1.40001
1.4
1.4
1.4
1.40007
1.40418
1.43494
1.63515
2.13252
2.72557
2.99596
3.1407
3.23323
3.28105
3.28324
3.28551
3.28861
3.29167
3.29547
3.29887
3.3017
3.30415
3.30488
3.30302
3.2987
3.29011
3.27577
3.25678
3.23493
3.21437
3.20168
3.19607
3.19172
3.18911
3.18034
1.40001
1.40001
1.40001
1.40001
1.40001
1.40001
1.40001
1.40001
1.40001
1.40001
1.40001
1.40001
1.40001
1.40001
1.40001
1.40001
1.40001
1.40001
1.40001
1.40001
1.40001
1.40001
1.40001
1.40001
1.40001
1.40001
1.40001
1.40001
1.40001
1.40001
1.40001
1.40001
1.40001
1.40001
1.40001
1.40001
1.40001
1.40001
1.40001
1.40001
1.40001
1.40001
1.40001
1.40001
1.40001
1.40001
1.40001
1.40001
1.4
1.4
1.40001
1.40024
1.40965
1.48369
1.78244
2.34353
2.94658
3.17124
3.2262
3.24415
3.25163
3.2614
3.27061
3.27701
3.28095
3.28323
3.28773
3.29561
3.29814
3.29655
3.28977
3.27637
3.25943
3.23815
3.21282
3.19653
3.19242
3.19098
3.18989
3.18443
1.40001
1.40001
1.40001
1.40001
1.40001
1.40001
1.40001
1.40001
1.40001
1.40001
1.40001
1.40001
1.40001
1.40001
1.40001
1.40001
1.40001
1.40001
1.40001
1.40001
1.40001
1.40001
1.40001
1.40001
1.40001
1.40001
1.40001
1.40001
1.40001
1.40001
1.40001
1.40001
1.40001
1.40001
1.40001
1.40001
1.40001
1.40001
1.40001
1.40001
1.40001
1.40001
1.40001
1.40001
1.40001
1.40001
1.40001
1.40001
1.40001
1.4
1.4
1.4
1.40004
1.40118
1.42445
1.57806
2.01319
2.63017
3.06719
3.26646
3.28743
3.30308
3.30362
3.29684
3.28504
3.27888
3.27786
3.28279
3.28345
3.28207
3.27899
3.27201
3.25898
3.24003
3.21419
3.1906
3.18311
3.18284
3.18661
3.184
1.40001
1.40001
1.40001
1.40001
1.40001
1.40001
1.40001
1.40001
1.40001
1.40001
1.40001
1.40001
1.40001
1.40001
1.40001
1.40001
1.40001
1.40001
1.40001
1.40001
1.40001
1.40001
1.40001
1.40001
1.40001
1.40001
1.40001
1.40001
1.40001
1.40001
1.40001
1.40001
1.40001
1.40001
1.40001
1.40001
1.40001
1.40001
1.40001
1.40001
1.40001
1.40001
1.40001
1.40001
1.40001
1.40001
1.40001
1.40001
1.40001
1.40001
1.40001
1.4
1.4
1.4
1.40021
1.40498
1.46827
1.77175
2.31964
2.85083
3.15604
3.28643
3.32017
3.32506
3.3224
3.31717
3.30862
3.29759
3.28725
3.27816
3.27367
3.26766
3.25734
3.2434
3.22087
3.19307
3.17783
3.17299
3.1726
3.17493
1.40001
1.40001
1.40001
1.40001
1.40001
1.40001
1.40001
1.40001
1.40001
1.40001
1.40001
1.40001
1.40001
1.40001
1.40001
1.40001
1.40001
1.40001
1.40001
1.40001
1.40001
1.40001
1.40001
1.40001
1.40001
1.40001
1.40001
1.40001
1.40001
1.40001
1.40001
1.40001
1.40001
1.40001
1.40001
1.40001
1.40001
1.40001
1.40001
1.40001
1.40001
1.40001
1.40001
1.40001
1.40001
1.40001
1.40001
1.40001
1.40001
1.40001
1.40001
1.40001
1.40001
1.4
1.4
1.40002
1.40124
1.42095
1.58202
2.06358
2.67315
3.04287
3.17849
3.25931
3.29649
3.31636
3.3206
3.31604
3.30115
3.28488
3.27349
3.26734
3.26014
3.2498
3.2353
3.21436
3.19093
3.17303
3.16406
3.16076
1.40001
1.40001
1.40001
1.40001
1.40001
1.40001
1.40001
1.40001