/*--------------------------------*- C++ -*----------------------------------*\
| =========                 |                                                 |
| \\      /  F ield         | OpenFOAM: The Open Source CFD Toolbox           |
|  \\    /   O peration     | Version:  2206                                  |
|   \\  /    A nd           | Website:  www.openfoam.com                      |
|    \\/     M anipulation  |                                                 |
\*---------------------------------------------------------------------------*/
FoamFile
{
    version     2.0;
    format      ascii;
    arch        "LSB;label=32;scalar=64";
    class       volVectorField;
    location    "0.14";
    object      U;
}
// * * * * * * * * * * * * * * * * * * * * * * * * * * * * * * * * * * * * * //

dimensions      [0 1 -1 0 0 0 0];

internalField   nonuniform List<vector> 
4800
(
(4.57576 1.51026e-15 0)
(4.57576 2.02102e-14 0)
(4.57576 2.19138e-14 0)
(4.57576 4.26674e-14 0)
(4.57576 6.5888e-14 0)
(4.57576 8.33577e-14 0)
(4.57576 8.42979e-14 0)
(4.57576 6.42578e-14 0)
(4.57576 -4.75482e-14 0)
(4.57576 -7.41995e-14 0)
(4.57576 -7.87136e-14 0)
(4.57576 1.955e-14 0)
(4.57576 7.19291e-14 0)
(4.57576 3.99869e-14 0)
(4.57576 -1.50859e-14 0)
(4.57576 -2.8705e-14 0)
(4.57576 -5.45861e-14 0)
(4.57576 -8.46713e-14 0)
(4.57576 -6.74717e-14 0)
(4.57576 -6.70816e-14 0)
(4.57576 -8.16208e-14 0)
(4.57576 -3.65063e-14 0)
(4.57576 1.85165e-14 0)
(4.57576 7.57931e-14 0)
(4.57576 1.31363e-13 0)
(4.57576 1.43225e-13 0)
(4.57576 1.64242e-13 0)
(4.57576 1.51379e-13 0)
(4.57576 5.78133e-14 0)
(4.57576 -1.19221e-14 0)
(4.57576 -5.73566e-14 0)
(4.57576 -4.72348e-14 0)
(4.57576 5.08421e-15 0)
(4.57576 3.13688e-14 0)
(4.57576 -3.93268e-14 0)
(4.57576 -1.13446e-13 0)
(4.57576 -6.0097e-14 0)
(4.57576 -3.32091e-14 0)
(4.57576 -1.65695e-14 0)
(4.57576 -1.63895e-14 0)
(4.57576 -1.32756e-14 0)
(4.57576 1.1702e-14 0)
(4.57576 1.79798e-14 0)
(4.57576 4.01703e-14 0)
(4.57576 1.23658e-13 0)
(4.57576 1.44295e-13 0)
(4.57576 1.15087e-13 0)
(4.57576 4.4661e-14 0)
(4.57576 -3.45526e-14 0)
(4.57576 -7.31993e-14 0)
(4.57576 -5.11955e-14 0)
(4.57576 -2.42842e-14 0)
(4.57576 4.4441e-15 0)
(4.57576 -7.07189e-14 0)
(4.57576 -1.14363e-13 0)
(4.57576 -1.05495e-13 0)
(4.57576 -9.17658e-14 0)
(4.57576 -8.01538e-14 0)
(4.57576 -1.61094e-14 0)
(4.57576 -2.03368e-16 0)
(4.57576 1.36457e-14 0)
(4.57576 -7.43795e-15 0)
(4.57576 5.88735e-14 0)
(4.57576 1.7626e-13 0)
(4.57576 2.08633e-13 0)
(4.57576 2.03292e-13 0)
(4.57576 2.77965e-13 0)
(4.57576 2.75828e-13 0)
(4.57576 7.33993e-14 0)
(4.57576 -1.79364e-14 0)
(4.57576 -6.69916e-14 0)
(4.57576 -7.18791e-14 0)
(4.57576 -5.08755e-15 0)
(4.57576 1.05868e-13 0)
(4.57576 -5.94436e-15 0)
(4.57576 -7.93737e-14 0)
(4.57576 -3.23889e-14 0)
(4.57576 2.43742e-14 0)
(4.57576 5.00386e-14 0)
(4.57576 5.14142e-14 0)
(4.57576 -5.44427e-15 0)
(4.57576 -4.18372e-14 0)
(4.57576 -4.65647e-14 0)
(4.57576 -1.16854e-14 0)
(4.57576 4.20639e-14 0)
(4.57576 5.28991e-14 0)
(4.57576 1.12153e-14 0)
(4.57576 -4.89284e-14 0)
(4.57576 -5.91035e-14 0)
(4.57576 -6.05505e-14 0)
(4.57576 -7.58698e-14 0)
(4.57576 -1.1496e-13 0)
(4.57576 -2.16364e-13 0)
(4.57576 -2.40518e-13 0)
(4.57576 -2.04722e-13 0)
(4.57576 -1.5569e-13 0)
(4.57576 -4.2204e-14 0)
(4.57576 2.94184e-14 0)
(4.57576 3.29624e-14 0)
(4.57576 3.20489e-14 0)
(4.57576 3.60729e-15 0)
(4.57576 -2.37508e-14 0)
(4.57576 -1.14686e-14 0)
(4.57576 3.40059e-14 0)
(4.57576 7.26225e-14 0)
(4.57576 8.45213e-14 0)
(4.57576 1.32293e-13 0)
(4.57576 1.19421e-13 0)
(4.57576 -4.67147e-14 0)
(4.57576 -1.1508e-13 0)
(4.57576 -9.0869e-14 0)
(4.57576 -7.76234e-14 0)
(4.57576 -1.9248e-13 0)
(4.57576 -1.52566e-13 0)
(4.57576 -5.52429e-14 0)
(4.57576 -3.44926e-14 0)
(4.57576 1.36524e-14 0)
(4.57576 -7.57131e-15 0)
(4.57576 -6.86085e-14 0)
(4.57576 -6.43969e-14 0)
(4.57576 4.61246e-14 0)
(4.57576 1.75864e-14 0)
(4.57576 -1.26589e-14 0)
(4.57576 1.42691e-15 0)
(4.57576 -5.30758e-15 0)
(4.57576 5.64097e-15 0)
(4.57576 3.32057e-15 0)
(4.57576 9.51164e-15 0)
(4.57576 4.91085e-15 0)
(4.57576 -4.91652e-14 0)
(4.57576 -1.39911e-13 0)
(4.57576 -1.33643e-13 0)
(4.57576 -1.46769e-13 0)
(4.57576 -1.5195e-13 0)
(4.57576 -1.08429e-13 0)
(4.57576 -3.22756e-14 0)
(4.57576 5.38426e-15 0)
(4.57576 2.56611e-14 0)
(4.57576 -5.0042e-15 0)
(4.57576 7.9147e-15 0)
(4.57576 -1.21354e-14 0)
(4.57576 -2.15371e-14 0)
(4.57576 -7.24458e-14 0)
(4.57576 -8.43446e-14 0)
(4.57576 -2.63312e-14 0)
(4.57576 4.49711e-14 0)
(4.57576 8.38712e-14 0)
(4.57576 1.20241e-13 0)
(4.57576 -1.7523e-14 0)
(4.57576 -1.40288e-13 0)
(4.57576 -1.26932e-13 0)
(4.57576 -9.33461e-14 0)
(4.57576 -1.7228e-13 0)
(4.57576 -2.02605e-13 0)
(4.57576 -1.60101e-13 0)
(4.57576 -1.29369e-13 0)
(4.57576 -1.32023e-13 0)
(4.57576 -1.93543e-13 0)
(4.57576 -2.51217e-13 0)
(4.57576 -1.98245e-13 0)
(4.57576 -1.18487e-14 0)
(4.57576 1.03785e-14 0)
(4.57576 5.66865e-14 0)
(4.57576 7.57964e-14 0)
(4.57576 1.33023e-14 0)
(4.57576 -6.31776e-15 0)
(4.57576 2.23505e-14 0)
(4.57576 9.49164e-14 0)
(4.57576 1.01164e-13 0)
(4.57576 5.73266e-14 0)
(4.57576 4.2274e-15 0)
(4.57576 1.59061e-14 0)
(4.57576 3.74598e-14 0)
(4.57576 6.30809e-14 0)
(4.57576 6.77617e-14 0)
(4.57576 4.95619e-14 0)
(4.57576 2.44942e-14 0)
(4.57576 -1.96367e-14 0)
(4.57576 -2.71747e-14 0)
(4.57576 1.33623e-14 0)
(4.57576 1.40274e-13 0)
(4.57576 1.46719e-13 0)
(4.57576 8.4988e-14 0)
(4.57576 2.40975e-14 0)
(4.57576 -1.63528e-14 0)
(4.57576 -1.1732e-14 0)
(4.57576 7.88536e-14 0)
(4.57576 1.28882e-13 0)
(4.57576 1.15857e-13 0)
(4.57576 -9.65833e-15 0)
(4.57576 -6.1784e-14 0)
(4.57576 -4.73315e-14 0)
(4.57576 -6.21374e-14 0)
(4.57576 -8.60182e-14 0)
(4.57576 -1.24315e-13 0)
(4.57576 -1.26378e-13 0)
(4.57576 -1.58717e-13 0)
(4.57576 -1.74207e-13 0)
(4.57576 -1.72833e-13 0)
(4.57576 -1.52966e-13 0)
(4.57576 -2.76048e-14 0)
(4.57576 -3.62396e-15 0)
(4.57576 3.99402e-15 0)
(4.57576 -3.27723e-15 0)
(4.57576 -1.82965e-14 0)
(4.57576 -3.99469e-14 0)
(4.57576 -3.24189e-14 0)
(4.57576 -2.62379e-15 0)
(4.57576 -1.50726e-14 0)
(4.57576 -7.07155e-14 0)
(4.57576 -1.38391e-14 0)
(4.57576 9.90104e-14 0)
(4.57576 1.10956e-13 0)
(4.57576 1.03345e-13 0)
(4.57576 9.2716e-15 0)
(4.57576 -2.22372e-14 0)
(4.57576 -5.89002e-14 0)
(4.57576 -5.72399e-14 0)
(4.57576 -5.32092e-14 0)
(4.57576 -8.84586e-14 0)
(4.57576 -1.03465e-13 0)
(4.57576 -7.43062e-14 0)
(4.57576 -6.47112e-15 0)
(4.57576 1.99701e-15 0)
(4.57576 7.58131e-15 0)
(4.57576 -2.38008e-14 0)
(4.57576 -2.9155e-14 0)
(4.57576 -4.75115e-14 0)
(4.57576 -2.59245e-14 0)
(4.57576 -1.70063e-14 0)
(4.57576 -6.61448e-14 0)
(4.57576 -8.81286e-14 0)
(4.57576 -1.02688e-13 0)
(4.57576 -6.3741e-14 0)
(4.57576 -2.61512e-14 0)
(4.57576 -6.24975e-14 0)
(4.57576 -8.51147e-14 0)
(4.57576 3.61729e-15 0)
(4.57576 4.10338e-14 0)
(4.57576 4.39864e-14 0)
(4.57576 1.39524e-14 0)
(4.57576 1.93667e-14 0)
(4.57576 -1.09919e-14 0)
(4.57576 -4.50578e-14 0)
(4.57576 -3.14521e-14 0)
(4.57576 -3.34591e-14 0)
(4.57576 -5.71032e-14 0)
(4.57576 -1.3341e-13 0)
(4.57576 -1.83012e-13 0)
(4.57576 -1.59681e-13 0)
(4.57576 -1.95067e-14 0)
(4.57576 1.88266e-14 0)
(4.57576 3.19155e-14 0)
(4.57576 2.65513e-14 0)
(4.57576 4.12271e-14 0)
(4.57576 4.99886e-14 0)
(4.57576 -4.36342e-14 0)
(4.57576 -6.32243e-14 0)
(4.57576 -9.92838e-14 0)
(4.57576 -1.90983e-13 0)
(4.57576 -2.7134e-13 0)
(4.57576 -2.93587e-13 0)
(4.57576 -1.9466e-13 0)
(4.57576 -1.27725e-13 0)
(4.57576 -7.54597e-14 0)
(4.57576 -1.30219e-13 0)
(4.57576 -1.90093e-13 0)
(4.57576 -1.91233e-13 0)
(4.57576 -1.55193e-13 0)
(4.57576 -4.97486e-14 0)
(4.57576 8.51814e-15 0)
(4.57576 -2.52944e-14 0)
(4.57576 -7.67866e-14 0)
(4.57576 -1.17144e-13 0)
(4.57576 -8.98955e-14 0)
(4.57576 -8.07406e-14 0)
(4.57576 -7.86269e-14 0)
(4.57576 -4.13071e-14 0)
(4.57576 -8.60149e-16 0)
(4.57576 2.61914e-16 0)
(4.57576 2.69046e-15 0)
(4.57576 -1.26989e-14 0)
(4.57576 1.09652e-14 0)
(4.57576 1.19487e-14 0)
(4.57576 2.49043e-14 0)
(4.57576 1.50193e-14 0)
(4.57576 -3.2729e-14 0)
(4.57576 -5.95836e-14 0)
(4.57576 -4.02103e-14 0)
(4.57576 2.36241e-14 0)
(4.57576 6.21441e-14 0)
(4.57576 8.57181e-14 0)
(4.57576 8.07239e-14 0)
(4.57576 6.02771e-14 0)
(4.57576 7.88003e-14 0)
(4.57576 8.58748e-14 0)
(4.57576 3.11987e-14 0)
(4.57576 -2.35207e-14 0)
(4.57576 -5.5733e-14 0)
(4.57576 -6.39444e-14 0)
(4.57576 -5.60363e-14 0)
(4.57576 -6.06338e-14 0)
(4.57576 -7.718e-15 0)
(4.57576 4.09437e-14 0)
(4.57576 1.05218e-14 0)
(4.57576 2.08503e-14 0)
(4.57576 1.30256e-14 0)
(4.57576 3.37725e-15 0)
(4.57576 4.0357e-14 0)
(4.57576 1.28999e-13 0)
(4.57576 1.15653e-13 0)
(4.57576 8.80352e-14 0)
(4.57576 7.02455e-14 0)
(4.57576 2.65012e-14 0)
(4.57576 -6.54246e-14 0)
(4.57576 -7.32226e-14 0)
(4.57576 -7.5003e-14 0)
(4.57576 -1.1852e-13 0)
(4.57576 -8.68583e-14 0)
(4.57576 -3.63764e-14 0)
(4.57576 5.31092e-15 0)
(4.57576 -3.73398e-15 0)
(4.57576 4.14405e-15 0)
(4.57576 1.66162e-14 0)
(4.57576 1.30423e-14 0)
(4.57576 7.728e-15 0)
(4.57576 9.32494e-15 0)
(4.57576 1.953e-14 0)
(4.57576 6.12539e-14 0)
(4.57576 7.5353e-14 0)
(4.57576 9.01556e-14 0)
(4.57576 6.34976e-14 0)
(4.57576 3.72531e-14 0)
(4.57576 -4.70081e-16 0)
(4.57576 -5.39126e-14 0)
(4.57576 -9.66367e-14 0)
(4.57576 -4.98853e-14 0)
(4.57576 -3.50961e-14 0)
(4.57576 4.10004e-14 0)
(4.57576 4.88751e-14 0)
(4.57576 3.16821e-14 0)
(4.57576 5.65098e-14 0)
(4.57576 6.99287e-14 0)
(4.57576 9.50331e-14 0)
(4.57576 9.38562e-14 0)
(4.57576 1.14937e-13 0)
(4.57576 1.00601e-13 0)
(4.57576 1.03698e-13 0)
(4.57576 1.05375e-13 0)
(4.57576 4.50111e-14 0)
(4.57576 6.2044e-15 0)
(4.57576 -1.1532e-14 0)
(4.57576 -3.50594e-14 0)
(4.57576 -1.23455e-14 0)
(4.57576 -8.73384e-14 0)
(4.57576 -1.49833e-13 0)
(4.57576 -1.1778e-13 0)
(4.57576 -5.4296e-14 0)
(4.57576 -6.00937e-14 0)
(4.57576 -3.77264e-14 0)
(4.57576 7.12456e-15 0)
(4.57576 7.78134e-15 0)
(4.57576 1.91033e-14 0)
(4.57576 1.76964e-14 0)
(4.57576 1.01951e-14 0)
(4.57576 5.50228e-14 0)
(4.57576 7.34193e-14 0)
(4.57576 3.19622e-14 0)
(4.57576 3.69831e-14 0)
(4.57576 4.85084e-14 0)
(4.57576 3.51894e-14 0)
(4.57576 -6.06771e-16 0)
(4.57576 -9.59499e-15 0)
(4.57576 -4.90285e-14 0)
(4.57576 -7.56331e-14 0)
(4.57576 -2.36107e-14 0)
(4.57576 -3.16021e-14 0)
(4.57576 -3.98235e-14 0)
(4.57576 8.80819e-15 0)
(4.57576 6.04204e-14 0)
(4.57576 5.70765e-14 0)
(4.57576 4.68381e-14 0)
(4.57576 1.76397e-14 0)
(4.57576 1.13053e-14 0)
(4.57576 5.34592e-14 0)
(4.57576 4.42576e-14 0)
(4.57576 8.77485e-15 0)
(4.57576 -4.41076e-14 0)
(4.57576 -1.27139e-13 0)
(4.57576 -1.56187e-13 0)
(4.57576 -1.19717e-13 0)
(4.57576 -1.02414e-13 0)
(4.57576 -1.26102e-13 0)
(4.57576 -8.12407e-14 0)
(4.57576 -1.04381e-13 0)
(4.57576 -1.177e-13 0)
(4.57576 -3.54828e-14 0)
(4.57576 1.81531e-14 0)
(4.57576 1.26489e-14 0)
(4.57576 -4.99922e-14 0)
(4.57576 -1.7203e-15 0)
(4.57576 8.00138e-15 0)
(4.57576 5.46661e-14 0)
(4.57576 7.45062e-14 0)
(4.57576 7.3406e-14 0)
(4.57576 8.45879e-14 0)
(4.57576 2.92617e-14 0)
(4.57576 2.79082e-14 0)
(4.57576 3.63896e-14 0)
(4.57576 3.98902e-14 0)
(4.57576 1.26922e-14 0)
(4.57576 1.77564e-14 0)
(4.57576 -2.39675e-14 0)
(4.57576 -1.65062e-14 0)
(4.57576 1.72063e-14 0)
(4.57576 5.52362e-14 0)
(4.57576 1.56394e-14 0)
(4.57576 -8.65483e-15 0)
(4.57576 -2.31573e-14 0)
(4.57576 -6.85785e-15 0)
(4.57576 1.90866e-14 0)
(4.57576 1.20387e-14 0)
(4.57576 -1.24988e-14 0)
(4.57576 5.64097e-14 0)
(4.57576 7.47896e-14 0)
(4.57576 4.68381e-14 0)
(4.57576 1.7333e-14 0)
(4.57576 -8.09506e-14 0)
(4.57576 -1.38807e-13 0)
(4.57576 -9.46563e-14 0)
(4.57576 -5.83101e-15 0)
(4.57576 3.20689e-14 0)
(4.57576 4.74882e-14 0)
(4.57576 -4.96619e-14 0)
(4.57576 -8.52114e-14 0)
(4.57576 -5.25091e-14 0)
(4.57576 2.64312e-14 0)
(4.57576 4.73982e-14 0)
(4.57576 2.21038e-14 0)
(4.57576 -1.12315e-14 0)
(4.57576 1.08785e-14 0)
(4.57576 3.74731e-14 0)
(4.57576 3.03486e-14 0)
(4.57576 4.01136e-14 0)
(4.57576 4.17605e-14 0)
(4.57576 2.78381e-15 0)
(4.57576 -3.60262e-14 0)
(4.57576 -4.15638e-14 0)
(4.57576 -5.25924e-14 0)
(4.57576 -5.05687e-14 0)
(4.57576 -2.63612e-14 0)
(4.57576 4.38276e-14 0)
(4.57576 1.07559e-13 0)
(4.57576 1.67782e-13 0)
(4.57576 1.46689e-13 0)
(4.57576 3.76065e-14 0)
(4.57576 -2.16737e-14 0)
(4.57576 -2.29273e-14 0)
(4.57576 -1.49226e-14 0)
(4.57576 3.66163e-14 0)
(4.57576 1.05382e-13 0)
(4.57576 1.47475e-13 0)
(4.57576 6.20941e-14 0)
(4.57576 3.35291e-14 0)
(4.57576 5.07554e-14 0)
(4.57576 5.89568e-14 0)
(4.57576 3.63263e-14 0)
(4.57576 6.01604e-14 0)
(4.57576 5.6063e-14 0)
(4.57576 5.36126e-14 0)
(4.57576 5.91335e-14 0)
(4.57576 7.85636e-14 0)
(4.57576 5.16256e-14 0)
(4.57576 4.18872e-14 0)
(4.57576 3.30424e-14 0)
(4.57576 9.37962e-14 0)
(4.57576 9.11324e-14 0)
(4.57576 1.33223e-13 0)
(4.57576 -3.40225e-14 0)
(4.57576 -2.43259e-14 0)
(4.57576 2.59712e-15 0)
(4.57576 -1.34023e-15 0)
(4.57576 -2.76214e-14 0)
(4.57576 -3.54861e-14 0)
(4.57576 -2.70613e-14 0)
(4.57576 -2.23439e-14 0)
(4.57576 1.76931e-14 0)
(4.57576 2.08536e-14 0)
(4.57576 3.55628e-14 0)
(4.57576 5.99837e-14 0)
(4.57576 8.97088e-14 0)
(4.57576 5.34392e-14 0)
(4.57576 9.13858e-14 0)
(4.57576 1.08805e-13 0)
(4.57576 1.44185e-13 0)
(4.57576 1.05852e-13 0)
(4.57576 9.0629e-14 0)
(4.57576 6.83118e-14 0)
(4.57576 5.30992e-14 0)
(4.57576 3.69297e-14 0)
(4.57576 1.27332e-13 0)
(4.57576 1.59998e-13 0)
(4.57576 1.44802e-13 0)
(4.57576 1.34723e-14 0)
(4.57576 -1.5436e-14 0)
(4.57576 -1.28656e-14 0)
(4.57576 -2.52844e-14 0)
(4.57576 6.23774e-14 0)
(4.57576 9.24793e-14 0)
(4.57576 5.84668e-14 0)
(4.57576 1.26355e-15 0)
(4.57576 1.34357e-15 0)
(4.57576 1.94067e-14 0)
(4.57576 7.47729e-14 0)
(4.57576 7.35227e-14 0)
(4.57576 7.73534e-14 0)
(4.57576 8.98055e-14 0)
(4.57576 9.4413e-14 0)
(4.57576 7.25359e-14 0)
(4.57576 5.9396e-14 0)
(4.57576 1.01684e-14 0)
(4.57576 5.34426e-15 0)
(4.57576 1.90266e-14 0)
(4.57576 9.35161e-15 0)
(4.57576 -1.44892e-14 0)
(4.57576 -4.33742e-15 0)
(4.57576 3.03019e-14 0)
(4.57576 8.02272e-14 0)
(4.57576 1.07729e-13 0)
(4.57576 1.13973e-13 0)
(4.57576 1.14626e-13 0)
(4.57576 3.62696e-14 0)
(4.57576 -2.46309e-14 0)
(4.57576 -2.66079e-14 0)
(4.57576 7.68699e-14 0)
(4.57576 1.82905e-13 0)
(4.57576 2.09429e-13 0)
(4.57576 2.05569e-13 0)
(4.57576 1.89503e-13 0)
(4.57576 6.26041e-14 0)
(4.57576 -3.06386e-15 0)
(4.57576 -4.77883e-14 0)
(4.57576 -1.31089e-14 0)
(4.57576 -4.45477e-14 0)
(4.57576 -5.98103e-14 0)
(4.57576 -9.76769e-14 0)
(4.57576 -1.78051e-13 0)
(4.57576 -1.72323e-13 0)
(4.57576 -2.35041e-14 0)
(4.57576 4.11738e-15 0)
(4.57576 6.10105e-16 0)
(4.57576 -4.56212e-14 0)
(4.57576 -3.81766e-14 0)
(4.57576 8.84153e-15 0)
(4.57576 5.33459e-14 0)
(4.57576 5.817e-14 0)
(4.57576 1.11363e-13 0)
(4.57576 1.61611e-13 0)
(4.57576 2.20555e-13 0)
(4.57576 1.28372e-13 0)
(4.57576 -2.50043e-14 0)
(4.57576 -2.51277e-14 0)
(4.57576 -8.23142e-15 0)
(4.57576 -1.97334e-14 0)
(4.57576 -6.34576e-14 0)
(4.57576 -1.02361e-13 0)
(4.57576 -1.00441e-13 0)
(4.57576 -3.50527e-14 0)
(4.57576 -1.49326e-14 0)
(4.57576 -4.88751e-15 0)
(4.57576 -2.08769e-14 0)
(4.57576 -6.5778e-15 0)
(4.57576 -2.82982e-14 0)
(4.57576 -5.38693e-14 0)
(4.57576 -1.68862e-14 0)
(4.57576 1.88609e-13 0)
(4.57576 2.43302e-13 0)
(4.57576 2.20888e-13 0)
(4.57576 1.30493e-13 0)
(4.57576 8.71084e-14 0)
(4.57576 5.99637e-14 0)
(4.57576 7.9347e-16 0)
(4.57576 -4.26574e-14 0)
(4.57576 -9.59699e-14 0)
(4.57576 -1.41398e-13 0)
(4.57576 -1.56757e-13 0)
(4.57576 -1.02884e-13 0)
(4.57576 -6.21541e-14 0)
(4.57576 -2.2974e-14 0)
(4.57576 -2.64612e-14 0)
(4.57576 1.95767e-14 0)
(4.57576 1.86499e-14 0)
(4.57576 1.7483e-14 0)
(4.57576 2.42275e-14 0)
(4.57576 1.37607e-13 0)
(4.57576 1.73967e-13 0)
(4.57576 2.18461e-13 0)
(4.57576 2.22452e-13 0)
(4.57576 7.13423e-14 0)
(4.57576 -3.93644e-14 0)
(4.57576 -2.10736e-14 0)
(4.57576 -2.26472e-14 0)
(4.57576 -1.03184e-14 0)
(4.57576 -3.20722e-15 0)
(4.57576 -9.95505e-15 0)
(4.57576 -1.64728e-14 0)
(4.57576 -3.48594e-14 0)
(4.57576 -3.16555e-14 0)
(4.57576 -1.5576e-14 0)
(4.57576 -3.47227e-14 0)
(4.57576 -6.66415e-14 0)
(4.57576 -5.56729e-14 0)
(4.57576 -1.48926e-14 0)
(4.57576 5.29425e-15 0)
(4.57576 2.73814e-14 0)
(4.57576 1.31256e-14 0)
(4.57576 1.79364e-14 0)
(4.57576 1.92733e-14 0)
(4.57576 -2.25539e-14 0)
(4.57576 -4.77849e-14 0)
(4.57576 3.90734e-15 0)
(4.57576 2.3304e-14 0)
(4.57576 -2.84916e-14 0)
(4.57576 -3.01319e-14 0)
(4.57576 -6.17807e-14 0)
(4.57576 -2.58778e-14 0)
(4.57576 8.41479e-14 0)
(4.57576 1.51179e-13 0)
(4.57576 9.04623e-14 0)
(4.57576 6.86519e-14 0)
(4.57576 6.92753e-14 0)
(4.57576 8.48547e-14 0)
(4.57576 6.24441e-14 0)
(4.57576 3.92935e-14 0)
(4.57576 6.33509e-14 0)
(4.57576 1.52013e-13 0)
(4.57576 1.33276e-13 0)
(4.57576 8.99755e-14 0)
(4.57576 5.63964e-14 0)
(4.57576 9.15616e-15 0)
(4.57576 6.14773e-15 0)
(4.57576 1.29589e-14 0)
(4.57576 2.79948e-14 0)
(4.57576 4.35809e-14 0)
(4.57576 5.19223e-14 0)
(4.57576 5.78633e-14 0)
(4.57576 3.32024e-14 0)
(4.57576 -1.08919e-14 0)
(4.57576 -1.53326e-14 0)
(4.57576 -3.03386e-15 0)
(4.57576 5.65098e-15 0)
(4.57576 -5.86101e-15 0)
(4.57576 1.84565e-14 0)
(4.57576 -7.43462e-16 0)
(4.57576 -4.41343e-14 0)
(4.57576 -5.27658e-14 0)
(4.57576 -1.11039e-13 0)
(4.57576 -3.81333e-14 0)
(4.57576 2.05302e-14 0)
(4.57576 2.40041e-15 0)
(4.57576 -5.14822e-14 0)
(4.57576 -8.36778e-14 0)
(4.57576 -7.25925e-14 0)
(4.57576 -5.0062e-14 0)
(4.57576 -1.83965e-14 0)
(4.57576 -9.08824e-15 0)
(4.57576 8.41312e-14 0)
(4.57576 1.02958e-13 0)
(4.57576 1.57561e-13 0)
(4.57576 1.89249e-13 0)
(4.57576 1.30286e-13 0)
(4.57576 1.35937e-13 0)
(4.57576 9.46463e-14 0)
(4.57576 7.56831e-14 0)
(4.57576 5.56529e-14 0)
(4.57576 5.29158e-14 0)
(4.57576 5.02387e-14 0)
(4.57576 1.29299e-13 0)
(4.57576 2.62865e-13 0)
(4.57576 3.36278e-13 0)
(4.57576 9.60166e-16 0)
(4.57576 -2.67279e-14 0)
(4.57576 -5.55796e-14 0)
(4.57576 -7.82769e-14 0)
(4.57576 -4.50578e-14 0)
(4.57576 -1.49426e-14 0)
(4.57576 1.3609e-14 0)
(4.57576 -4.10071e-14 0)
(4.57576 -3.6853e-14 0)
(4.57576 2.42975e-14 0)
(4.57576 6.64248e-14 0)
(4.57576 4.54712e-14 0)
(4.57576 4.08737e-14 0)
(4.57576 3.34291e-14 0)
(4.57576 4.54512e-14 0)
(4.57576 8.04139e-14 0)
(4.57576 1.01384e-14 0)
(4.57576 -2.87416e-14 0)
(4.57576 3.36925e-14 0)
(4.57576 3.15221e-14 0)
(4.57576 -2.82182e-14 0)
(4.57576 3.834e-15 0)
(4.57576 3.80099e-14 0)
(4.57576 1.13953e-14 0)
(4.57576 1.09652e-14 0)
(4.57576 3.04453e-14 0)
(4.57576 4.30308e-14 0)
(4.57576 6.29575e-14 0)
(4.57576 1.80411e-13 0)
(4.57576 2.45116e-13 0)
(4.57576 2.44846e-13 0)
(4.57576 2.59211e-13 0)
(4.57576 2.38001e-13 0)
(4.57576 2.36001e-13 0)
(4.57576 1.65165e-13 0)
(4.57576 1.05338e-13 0)
(4.57576 9.15125e-14 0)
(4.57576 1.96031e-13 0)
(4.57576 2.79018e-13 0)
(4.57576 2.7747e-13 0)
(4.57576 1.3789e-14 0)
(4.57576 1.31589e-14 0)
(4.57576 -2.73414e-14 0)
(4.57576 -6.38477e-14 0)
(4.57576 -5.67098e-14 0)
(4.57576 -2.13637e-14 0)
(4.57576 2.57411e-14 0)
(4.57576 5.71365e-14 0)
(4.57576 4.12338e-14 0)
(4.57576 1.907e-14 0)
(4.57576 -4.03236e-14 0)
(4.57576 -6.93053e-14 0)
(4.57576 -9.23126e-14 0)
(4.57576 3.41159e-14 0)
(4.57576 7.67132e-14 0)
(4.57576 5.21023e-14 0)
(4.57576 5.55063e-14 0)
(4.57576 2.01802e-14 0)
(4.57576 4.49878e-14 0)
(4.57576 7.05755e-14 0)
(4.57576 6.24208e-14 0)
(4.57576 7.1149e-14 0)
(4.57576 4.41276e-14 0)
(4.57576 4.97986e-14 0)
(4.57576 -5.30092e-16 0)
(4.57576 6.07105e-15 0)
(4.57576 -1.61695e-14 0)
(4.57576 -2.12503e-14 0)
(4.57576 5.31158e-14 0)
(4.57576 1.78854e-13 0)
(4.57576 2.99848e-13 0)
(4.57576 3.08603e-13 0)
(4.57576 2.60982e-13 0)
(4.57576 2.06229e-13 0)
(4.57576 2.02825e-13 0)
(4.57576 1.72897e-13 0)
(4.57576 1.37444e-13 0)
(4.57576 4.76982e-14 0)
(4.57576 8.39612e-14 0)
(4.57576 7.78624e-14 0)
(4.57576 8.06806e-15 0)
(4.57576 8.50147e-15 0)
(4.57576 -1.1502e-15 0)
(4.57576 7.55464e-14 0)
(4.57576 1.00451e-13 0)
(4.57576 1.01454e-13 0)
(4.57576 9.38862e-14 0)
(4.57576 1.23388e-13 0)
(4.57576 1.65879e-13 0)
(4.57576 1.04461e-13 0)
(4.57576 -6.71116e-15 0)
(4.57576 -2.59912e-14 0)
(4.57576 -1.12476e-13 0)
(4.57576 -9.627e-14 0)
(4.57576 -8.36178e-14 0)
(4.57576 -5.02987e-14 0)
(4.57576 1.29822e-14 0)
(4.57576 2.11637e-14 0)
(4.57576 -2.11236e-14 0)
(4.57576 -5.9807e-14 0)
(4.57576 -8.26409e-14 0)
(4.57576 -1.14206e-13 0)
(4.57576 -5.78733e-14 0)
(4.57576 -1.35723e-14 0)
(4.57576 -1.7273e-14 0)
(4.57576 -6.3511e-15 0)
(4.57576 9.67834e-15 0)
(4.57576 3.93735e-14 0)
(4.57576 1.39747e-13 0)
(4.57576 1.56834e-13 0)
(4.57576 1.62125e-13 0)
(4.57576 1.27619e-13 0)
(4.57576 6.59814e-14 0)
(4.57576 4.6218e-14 0)
(4.57576 7.80335e-14 0)
(4.57576 1.28906e-13 0)
(4.57576 1.69729e-14 0)
(4.57576 -9.57865e-14 0)
(4.57576 -1.55717e-13 0)
(4.57576 -1.20049e-13 0)
(4.57576 5.02753e-15 0)
(4.57576 2.10036e-14 0)
(4.57576 4.67614e-14 0)
(4.57576 7.1369e-14 0)
(4.57576 9.48597e-14 0)
(4.57576 8.10307e-14 0)
(4.57576 2.9055e-14 0)
(4.57576 3.04053e-15 0)
(4.57576 4.31608e-14 0)
(4.57576 5.53996e-14 0)
(4.57576 6.33676e-14 0)
(4.57576 5.31025e-14 0)
(4.57576 1.1402e-14 0)
(4.57576 -9.04923e-14 0)
(4.57576 -9.66867e-14 0)
(4.57576 -7.13156e-14 0)
(4.57576 -8.53014e-14 0)
(4.57576 -1.13723e-13 0)
(4.57576 -1.45782e-13 0)
(4.57576 -1.49496e-13 0)
(4.57576 -1.169e-13 0)
(4.57576 -1.58727e-14 0)
(4.57576 2.81382e-14 0)
(4.57576 8.72517e-14 0)
(4.57576 1.14216e-13 0)
(4.57576 1.54567e-13 0)
(4.57576 1.20564e-13 0)
(4.57576 1.14353e-13 0)
(4.57576 1.40401e-13 0)
(4.57576 1.46495e-13 0)
(4.57576 1.19611e-13 0)
(4.57576 9.69434e-14 0)
(4.57576 5.37193e-14 0)
(4.57576 7.46762e-14 0)
(4.57576 9.57365e-14 0)
(4.57576 1.24001e-13 0)
(4.57576 6.89986e-14 0)
(4.57576 4.00969e-14 0)
(4.57576 -1.03278e-13 0)
(4.57576 -1.08876e-13 0)
(4.57576 4.04403e-15 0)
(4.57576 2.59245e-14 0)
(4.57576 4.85184e-14 0)
(4.57576 9.52498e-15 0)
(4.57576 -2.1067e-14 0)
(4.57576 -4.98686e-14 0)
(4.57576 -3.14088e-14 0)
(4.57576 -6.59614e-14 0)
(4.57576 -1.04265e-13 0)
(4.57576 -7.67333e-14 0)
(4.57576 -4.37175e-14 0)
(4.57576 -2.6928e-14 0)
(4.57576 3.4546e-14 0)
(4.57576 -6.49045e-14 0)
(4.57576 -1.05882e-13 0)
(4.57576 -1.51496e-13 0)
(4.57576 -1.70313e-13 0)
(4.57576 -1.64808e-13 0)
(4.57576 -1.26705e-13 0)
(4.57576 -8.8682e-15 0)
(4.57576 1.04895e-13 0)
(4.57576 1.97681e-13 0)
(4.57576 2.05929e-13 0)
(4.57576 2.38201e-13 0)
(4.57576 1.68446e-13 0)
(4.57576 1.24755e-13 0)
(4.57576 1.24872e-13 0)
(4.57576 5.92102e-14 0)
(4.57576 -2.41842e-14 0)
(4.57576 -3.37592e-14 0)
(4.57576 -2.26973e-14 0)
(4.57576 -8.77151e-15 0)
(4.57576 2.96618e-14 0)
(4.57576 6.81418e-14 0)
(4.57576 7.84302e-14 0)
(4.57576 8.97122e-14 0)
(4.57576 1.03204e-13 0)
(4.57576 9.27093e-14 0)
(4.57576 8.25776e-14 0)
(4.57576 7.02845e-14 0)
(4.57576 -4.97419e-15 0)
(4.57576 -6.24775e-15 0)
(4.57576 -2.38741e-14 0)
(4.57576 -6.08805e-14 0)
(4.57576 -1.05238e-13 0)
(4.57576 -8.7035e-14 0)
(4.57576 -6.11206e-14 0)
(4.57576 -5.9617e-14 0)
(4.57576 -1.14593e-13 0)
(4.57576 -9.71101e-14 0)
(4.57576 -9.17725e-14 0)
(4.57576 -7.65265e-14 0)
(4.57576 -2.08403e-14 0)
(4.57576 -1.3649e-14 0)
(4.57576 -7.48463e-14 0)
(4.57576 -6.29809e-14 0)
(4.57576 2.87516e-14 0)
(4.57576 3.24489e-14 0)
(4.57576 6.56347e-14 0)
(4.57576 2.23649e-13 0)
(4.57576 2.7081e-13 0)
(4.57576 3.36441e-13 0)
(4.57576 2.5099e-13 0)
(4.57576 9.20126e-14 0)
(4.57576 1.03708e-13 0)
(4.57576 4.51411e-14 0)
(4.57576 3.86533e-14 0)
(4.57576 8.54148e-15 0)
(4.57576 -4.10771e-14 0)
(4.57576 -1.96431e-13 0)
(4.57576 -2.3397e-13 0)
(4.57576 -2.09096e-13 0)
(4.57576 -1.3277e-13 0)
(4.57576 -1.07595e-13 0)
(4.57576 -4.10037e-14 0)
(4.57576 -7.65165e-14 0)
(4.57576 -8.7035e-14 0)
(4.57576 -4.57212e-14 0)
(4.57576 1.30022e-13 0)
(4.57576 1.4548e-13 0)
(4.57576 -3.38058e-14 0)
(4.57576 -5.84834e-14 0)
(4.57576 -7.60731e-14 0)
(4.57576 -4.70415e-14 0)
(4.57576 -4.08804e-14 0)
(4.57576 -3.21355e-14 0)
(4.57576 -4.34808e-14 0)
(4.57576 -3.53928e-14 0)
(4.57576 -9.13491e-16 0)
(4.57576 9.77502e-15 0)
(4.57576 1.19254e-14 0)
(4.57576 2.30173e-14 0)
(4.57576 1.62128e-14 0)
(4.57576 6.79317e-14 0)
(4.57576 8.59582e-14 0)
(4.57576 6.1964e-14 0)
(4.57576 1.1394e-13 0)
(4.57576 1.42358e-13 0)
(4.57576 1.91433e-13 0)
(4.57576 2.04925e-13 0)
(4.57576 1.91176e-13 0)
(4.57576 1.26672e-13 0)
(4.57576 8.78252e-14 0)
(4.57576 5.74599e-14 0)
(4.57576 6.83318e-14 0)
(4.57576 -1.02284e-14 0)
(4.57576 -1.04808e-13 0)
(4.57576 -1.05001e-13 0)
(4.57576 -1.81151e-13 0)
(4.57576 -2.19251e-13 0)
(4.57576 -1.83125e-13 0)
(4.57576 -1.21611e-13 0)
(4.57576 -1.06645e-13 0)
(4.57576 -1.22361e-13 0)
(4.57576 -1.31869e-13 0)
(4.57576 -1.52943e-13 0)
(4.57576 -1.70096e-13 0)
(4.57576 -1.9461e-13 0)
(4.57576 -4.47677e-14 0)
(4.57576 3.88303e-14 0)
(4.57576 -9.80503e-15 0)
(4.57576 -1.30022e-14 0)
(4.57576 1.72696e-14 0)
(4.57576 8.86153e-14 0)
(4.57576 7.75367e-14 0)
(4.57576 8.23809e-14 0)
(4.57576 7.10923e-14 0)
(4.57576 8.58548e-14 0)
(4.57576 7.38961e-14 0)
(4.57576 5.28791e-14 0)
(4.57576 8.82952e-14 0)
(4.57576 1.518e-13 0)
(4.57576 1.46119e-13 0)
(4.57576 1.7275e-13 0)
(4.57576 1.30519e-13 0)
(4.57576 -2.01701e-14 0)
(4.57576 -1.10729e-13 0)
(4.57576 -6.91319e-14 0)
(4.57576 -7.98571e-14 0)
(4.57576 -9.01222e-14 0)
(4.57576 -1.08072e-13 0)
(4.57576 -1.24088e-13 0)
(4.57576 -1.00687e-13 0)
(4.57576 -4.10871e-14 0)
(4.57576 -2.7238e-15 0)
(4.57576 5.85501e-14 0)
(4.57576 6.27175e-14 0)
(4.57576 3.48027e-14 0)
(4.57576 -8.06473e-15 0)
(4.57576 -8.0834e-14 0)
(4.57576 -7.96371e-14 0)
(4.57576 -4.66147e-14 0)
(4.57576 -4.05003e-14 0)
(4.57576 -3.61329e-14 0)
(4.57576 -4.90651e-14 0)
(4.57576 -3.57728e-15 0)
(4.57576 5.83434e-16 0)
(4.57576 -1.11936e-13 0)
(4.57576 -1.61628e-13 0)
(4.57576 -1.79542e-13 0)
(4.57576 4.11371e-14 0)
(4.57576 9.66067e-14 0)
(4.57576 1.02938e-13 0)
(4.57576 7.84802e-14 0)
(4.57576 6.36177e-14 0)
(4.57576 5.17656e-14 0)
(4.57576 4.46177e-14 0)
(4.57576 3.18088e-14 0)
(4.57576 3.59395e-15 0)
(4.57576 -1.80431e-14 0)
(4.57576 -1.20621e-14 0)
(4.57576 3.77499e-14 0)
(4.57576 6.99187e-14 0)
(4.57576 8.15974e-14 0)
(4.57576 4.54278e-14 0)
(4.57576 -2.63546e-14 0)
(4.57576 -1.39991e-13 0)
(4.57576 -1.88609e-13 0)
(4.57576 -2.55111e-13 0)
(4.57576 -2.84056e-13 0)
(4.57576 -2.40822e-13 0)
(4.57576 -2.17801e-13 0)
(4.57576 -1.16997e-13 0)
(4.57576 -4.42443e-14 0)
(4.57576 -2.43175e-14 0)
(4.57576 3.14488e-14 0)
(4.57576 8.71551e-14 0)
(4.57576 9.31061e-14 0)
(4.57576 8.16841e-14 0)
(4.57576 5.56229e-14 0)
(4.57576 -4.45377e-14 0)
(4.57576 -8.27743e-14 0)
(4.57576 -9.81836e-14 0)
(4.57576 -3.13954e-14 0)
(4.57576 4.46844e-14 0)
(4.57576 5.03654e-14 0)
(4.57576 2.75214e-14 0)
(4.57576 -2.60745e-14 0)
(4.57576 -1.26815e-13 0)
(4.57576 -1.74697e-13 0)
(4.57576 3.59729e-15 0)
(4.57576 1.40791e-14 0)
(4.57576 2.91384e-15 0)
(4.57576 -3.73565e-14 0)
(4.57576 -3.68897e-14 0)
(4.57576 -6.18573e-14 0)
(4.57576 -5.27758e-14 0)
(4.57576 -5.87935e-14 0)
(4.57576 -3.66763e-14 0)
(4.57576 -3.09587e-14 0)
(4.57576 -3.39892e-14 0)
(4.57576 -4.20773e-14 0)
(4.57576 -4.98086e-14 0)
(4.57576 -3.24489e-14 0)
(4.57576 6.81918e-14 0)
(4.57576 1.01858e-13 0)
(4.57576 6.94787e-14 0)
(4.57576 4.21206e-14 0)
(4.57576 -5.30792e-14 0)
(4.57576 -1.15413e-13 0)
(4.57576 -1.09749e-13 0)
(4.57576 -1.02341e-13 0)
(4.57576 -1.1402e-13 0)
(4.57576 -1.539e-13 0)
(4.57576 -1.96101e-13 0)
(4.57576 -1.69253e-13 0)
(4.57576 -9.50564e-14 0)
(4.57576 -1.80164e-14 0)
(4.57576 -2.93684e-14 0)
(4.57576 -2.46909e-14 0)
(4.57576 -3.90267e-14 0)
(4.57576 -7.15357e-14 0)
(4.57576 -1.00914e-13 0)
(4.57576 -8.43679e-14 0)
(4.57576 -5.62197e-14 0)
(4.57576 -5.87035e-14 0)
(4.57576 -4.40176e-14 0)
(4.57576 -6.64315e-14 0)
(4.57576 -8.79585e-14 0)
(4.57576 -1.10021e-13 0)
(4.57576 -9.645e-15 0)
(4.57576 -3.07686e-14 0)
(4.57576 -9.68334e-14 0)
(4.57576 -1.23528e-13 0)
(4.57576 -7.36194e-14 0)
(4.57576 -5.29091e-14 0)
(4.57576 -3.18222e-14 0)
(4.57576 4.74582e-14 0)
(4.57576 6.28008e-14 0)
(4.57576 4.4651e-14 0)
(4.57576 2.82482e-14 0)
(4.57576 9.19826e-15 0)
(4.57576 7.02521e-14 0)
(4.57576 7.56064e-14 0)
(4.57576 9.48097e-14 0)
(4.57576 9.49397e-14 0)
(4.57576 1.20841e-13 0)
(4.57576 7.34093e-14 0)
(4.57576 7.28159e-14 0)
(4.57576 -1.62595e-14 0)
(4.57576 -7.28626e-14 0)
(4.57576 -1.01704e-13 0)
(4.57576 -1.55527e-13 0)
(4.57576 -2.02662e-13 0)
(4.57576 -2.28883e-13 0)
(4.57576 -1.7483e-13 0)
(4.57576 -7.82135e-14 0)
(4.57576 -1.14843e-13 0)
(4.57576 -1.32536e-13 0)
(4.57576 -1.48312e-13 0)
(4.57576 -7.39294e-14 0)
(4.57576 -6.51979e-14 0)
(4.57576 -7.43095e-14 0)
(4.57576 -7.84535e-14 0)
(4.57576 -1.27655e-13 0)
(4.57576 -2.01772e-13 0)
(4.57576 -1.90796e-13 0)
(4.57576 -1.39294e-13 0)
(4.57576 -1.58584e-13 0)
(4.57576 -1.66979e-13 0)
(4.57576 1.56194e-14 0)
(4.57576 1.85865e-14 0)
(4.57576 -2.67646e-14 0)
(4.57576 -7.24792e-15 0)
(4.57576 4.76249e-14 0)
(4.57576 9.92305e-14 0)
(4.57576 9.2686e-14 0)
(4.57576 1.19814e-13 0)
(4.57576 1.48132e-13 0)
(4.57576 1.59788e-13 0)
(4.57576 1.02254e-13 0)
(4.57576 6.67582e-14 0)
(4.57576 2.10803e-14 0)
(4.57576 -1.55127e-14 0)
(4.57576 -2.15871e-14 0)
(4.57576 1.15453e-14 0)
(4.57576 5.19923e-14 0)
(4.57576 8.94554e-14 0)
(4.57576 1.34023e-13 0)
(4.57576 5.01053e-14 0)
(4.57576 3.59695e-14 0)
(4.57576 -3.62729e-15 0)
(4.57576 -3.22856e-14 0)
(4.57576 -5.34592e-14 0)
(4.57576 -1.20161e-13 0)
(4.57576 -1.35287e-13 0)
(4.57576 -1.17247e-13 0)
(4.57576 -1.44598e-13 0)
(4.57576 -1.47899e-13 0)
(4.57576 -8.34111e-14 0)
(4.57576 -2.70013e-14 0)
(4.57576 -5.67765e-14 0)
(4.57576 -3.35358e-14 0)
(4.57576 -2.7128e-14 0)
(4.57576 -9.15158e-14 0)
(4.57576 -1.82408e-13 0)
(4.57576 -2.34407e-13 0)
(4.57576 -2.02015e-13 0)
(4.57576 -1.38807e-13 0)
(4.57576 -5.42894e-14 0)
(4.57576 1.27489e-14 0)
(4.57576 1.20287e-14 0)
(4.57576 4.68781e-14 0)
(4.57576 6.14273e-14 0)
(4.57576 5.57796e-14 0)
(4.57576 5.78167e-14 0)
(4.57576 2.70713e-14 0)
(4.57576 -1.63028e-14 0)
(4.57576 -4.22773e-14 0)
(4.57576 -7.36661e-14 0)
(4.57576 -9.39829e-14 0)
(4.57576 -1.18294e-13 0)
(4.57576 -1.25685e-13 0)
(4.57576 -1.78234e-13 0)
(4.57576 -2.20938e-13 0)
(4.57576 -1.29386e-13 0)
(4.57576 -4.9972e-14 0)
(4.57576 2.25339e-14 0)
(4.57576 1.11276e-13 0)
(4.57576 1.79484e-13 0)
(4.57576 1.29156e-13 0)
(4.57576 3.17622e-14 0)
(4.57576 1.5676e-14 0)
(4.57576 -8.82152e-15 0)
(4.57576 -3.36558e-14 0)
(4.57576 -7.07055e-14 0)
(4.57576 -9.2446e-14 0)
(4.57576 -9.23826e-14 0)
(4.57576 -2.19371e-15 0)
(4.57576 5.62897e-14 0)
(4.57576 6.88719e-14 0)
(4.57576 4.71715e-14 0)
(4.57576 1.89033e-14 0)