/*--------------------------------*- C++ -*----------------------------------*\
| =========                 |                                                 |
| \\      /  F ield         | OpenFOAM: The Open Source CFD Toolbox           |
|  \\    /   O peration     | Version:  2206                                  |
|   \\  /    A nd           | Website:  www.openfoam.com                      |
|    \\/     M anipulation  |                                                 |
\*---------------------------------------------------------------------------*/
FoamFile
{
    version     2.0;
    format      ascii;
    arch        "LSB;label=32;scalar=64";
    class       volVectorField;
    location    "0.1";
    object      U;
}
// * * * * * * * * * * * * * * * * * * * * * * * * * * * * * * * * * * * * * //

dimensions      [0 1 -1 0 0 0 0];

internalField   nonuniform List<vector> 
75
(
(5.86869 4.16739e-19 0)
(5.86869 4.16739e-19 0)
(5.86869 3.69147e-15 0)
(5.86869 3.59104e-15 0)
(5.86869 3.20805e-15 0)
(5.86869 -1.31689e-16 0)
(5.86869 -3.56312e-16 0)
(5.86869 -5.23007e-16 0)
(5.86869 -5.95103e-16 0)
(5.86869 -3.35291e-16 0)
(5.86869 -3.43143e-15 0)
(5.86869 -2.95509e-15 0)
(5.86869 -5.85559e-15 0)
(5.86869 -5.34509e-15 0)
(5.86869 -3.74685e-16 0)
(5.86869 -1.19187e-16 0)
(5.86869 2.25122e-15 0)
(5.86869 5.32509e-15 0)
(5.86869 8.30643e-15 0)
(5.86869 1.29288e-14 0)
(5.86869 1.912e-15 0)
(5.86869 5.76391e-15 0)
(5.86869 9.25285e-15 0)
(5.86869 1.48163e-14 0)
(5.86869 1.51409e-14 0)
(5.84231 -0.0111822 0)
(5.79524 0.0892643 0)
(5.75299 0.0746849 0)
(5.6853 0.271477 0)
(5.64934 0.284244 0)
(5.56037 0.517489 0)
(5.53609 0.552959 0)
(5.42069 0.807845 0)
(5.46959 0.86813 0)
(5.27459 1.11816 0)
(5.86869 5.14913e-06 0)
(5.86869 1.25081e-05 0)
(5.87489 -0.0147532 0)
(5.85297 0.0366535 0)
(5.84276 0.0577644 0)
(5.75448 0.26891 0)
(5.71276 0.427889 0)
(5.5205 0.87807 0)
(5.49788 1.13186 0)
(5.19066 1.70631 0)
(5.86869 6.60108e-08 0)
(5.86869 -8.75e-08 0)
(5.86875 -0.000141336 0)
(5.86873 -0.000122446 0)
(5.86899 -0.000785393 0)
(5.86831 0.000949482 0)
(5.87072 -0.00664892 0)
(5.85846 0.042026 0)
(5.85245 0.0582518 0)
(5.62593 0.75432 0)
(5.86869 3.53593e-09 0)
(5.86869 3.52746e-09 0)
(5.86869 1.47724e-06 0)
(5.86869 -3.21783e-06 0)
(5.86871 -8.82559e-05 0)
(5.86871 -8.65245e-05 0)
(5.86883 -0.000191635 0)
(5.86883 -0.000847905 0)
(5.86868 -0.000128119 0)
(5.82451 0.169534 0)
(5.86869 -1.05653e-11 0)
(5.86869 4.47996e-10 0)
(5.86869 1.67917e-07 0)
(5.86869 1.37985e-07 0)
(5.86869 1.12781e-06 0)
(5.86869 -1.76022e-05 0)
(5.86869 -4.02416e-06 0)
(5.86873 -0.000170516 0)
(5.86872 -0.000117854 0)
(5.8657 0.00726047 0)
)
;

boundaryField
{
    inlet
    {
        type            fixedValue;
        value           uniform (5.86869 0 0);
    }
    outlet
    {
        type            zeroGradient;
    }
    bottom
    {
        type            symmetryPlane;
    }
    top
    {
        type            symmetryPlane;
    }
    obstacle
    {
        type            slip;
    }
    defaultFaces
    {
        type            empty;
    }
}


// ************************************************************************* //
