/*--------------------------------*- C++ -*----------------------------------*\
| =========                 |                                                 |
| \\      /  F ield         | OpenFOAM: The Open Source CFD Toolbox           |
|  \\    /   O peration     | Version:  2206                                  |
|   \\  /    A nd           | Website:  www.openfoam.com                      |
|    \\/     M anipulation  |                                                 |
\*---------------------------------------------------------------------------*/
FoamFile
{
    version     2.0;
    format      ascii;
    arch        "LSB;label=32;scalar=64";
    class       volVectorField;
    location    "0.06";
    object      U;
}
// * * * * * * * * * * * * * * * * * * * * * * * * * * * * * * * * * * * * * //

dimensions      [0 1 -1 0 0 0 0];

internalField   nonuniform List<vector> 
75
(
(3.12121 -6.53279e-15 0)
(3.12121 -5.55263e-15 0)
(3.12121 2.45959e-15 0)
(3.12121 -1.37986e-13 0)
(3.12121 -2.02646e-13 0)
(3.12121 -8.34727e-16 0)
(3.12121 4.29366e-15 0)
(3.12121 3.42726e-15 0)
(3.12121 -7.84102e-14 0)
(3.12121 -4.05425e-13 0)
(3.12121 4.30908e-16 0)
(3.12121 1.03018e-15 0)
(3.12121 -4.03011e-14 0)
(3.12121 8.20392e-15 0)
(3.12121 -2.96941e-14 0)
(3.12121 7.34669e-15 0)
(3.12121 2.09911e-15 0)
(3.12121 -3.80441e-15 0)
(3.12121 5.58246e-14 0)
(3.12121 5.13799e-15 0)
(3.12121 1.40549e-14 0)
(3.12121 1.23951e-14 0)
(3.12121 3.02127e-14 0)
(3.12121 8.917e-14 0)
(3.12121 -2.32203e-14 0)
(3.06123 0.0164512 0)
(2.97914 0.0677996 0)
(2.89987 0.159087 0)
(2.84863 0.271953 0)
(2.84041 0.371945 0)
(2.85847 0.44875 0)
(2.88439 0.506015 0)
(2.89335 0.56695 0)
(2.90316 0.623702 0)
(2.86749 0.683673 0)
(3.11605 0.00735613 0)
(3.0935 0.0444307 0)
(3.04071 0.141846 0)
(2.96687 0.305057 0)
(2.9082 0.488939 0)
(2.88178 0.646403 0)
(2.87331 0.769586 0)
(2.85938 0.869703 0)
(2.8463 0.946369 0)
(2.8117 0.960566 0)
(3.12122 -2.29731e-06 0)
(3.12113 7.48628e-05 0)
(3.11951 0.00304854 0)
(3.11321 0.0176549 0)
(3.10215 0.0570579 0)
(3.09413 0.12247 0)
(3.09241 0.205874 0)
(3.09165 0.307739 0)
(3.09311 0.407393 0)
(3.07715 0.606674 0)
(3.12121 -4.78143e-06 0)
(3.12121 -5.11228e-06 0)
(3.12122 -1.69644e-05 0)
(3.12116 4.47822e-05 0)
(3.12073 0.00117664 0)
(3.11959 0.00609995 0)
(3.11775 0.0179934 0)
(3.11443 0.045257 0)
(3.10982 0.0903512 0)
(3.10066 0.288525 0)
(3.12121 -1.4467e-07 0)
(3.12121 -8.08144e-07 0)
(3.12121 -4.90003e-06 0)
(3.12121 -3.15674e-06 0)
(3.12121 -6.34912e-06 0)
(3.1212 4.38153e-05 0)
(3.12115 8.08891e-05 0)
(3.12105 0.000719652 0)
(3.12042 0.00171387 0)
(3.11564 0.0220718 0)
)
;

boundaryField
{
    inlet
    {
        type            fixedValue;
        value           uniform (3.12121 0 0);
    }
    outlet
    {
        type            zeroGradient;
    }
    bottom
    {
        type            symmetryPlane;
    }
    top
    {
        type            symmetryPlane;
    }
    obstacle
    {
        type            slip;
    }
    defaultFaces
    {
        type            empty;
    }
}


// ************************************************************************* //
