/*--------------------------------*- C++ -*----------------------------------*\
| =========                 |                                                 |
| \\      /  F ield         | OpenFOAM: The Open Source CFD Toolbox           |
|  \\    /   O peration     | Version:  2206                                  |
|   \\  /    A nd           | Website:  www.openfoam.com                      |
|    \\/     M anipulation  |                                                 |
\*---------------------------------------------------------------------------*/
FoamFile
{
    version     2.0;
    format      ascii;
    arch        "LSB;label=32;scalar=64";
    class       volScalarField;
    location    "0.1";
    object      p;
}
// * * * * * * * * * * * * * * * * * * * * * * * * * * * * * * * * * * * * * //

dimensions      [1 -1 -2 0 0 0 0];

internalField   nonuniform List<scalar> 
4800
(
1
1
1
1
1
1
1
1
1
1
1
1
1
1
1
1
1
1
1
1
1
1
1
1
1
1
1
1
1
1
1
1
1
1
1
1
1
1
1
1
1
1
1
1
1
1
1
1
1
1
1
1
1
1
1
1
1
1
1
1
1
1
1
1
1
1
1
1
1
1
1
1
1
1
1
1
1
1
1
1
1
1
1
1
1
1
1
1
1
1
1
1
1
1
1
1
1
1
1
1
1
1
1
1
1
1
1
1
1
1
1
1
1
1
1
1
1
1
1
1
1
1
1
1
1
1
1
1
1
1
1
1
1
1
1
1
1
1
1
1
1
1
1
1
1
1
1
1
1
1
1
1
1
1
1
1
1
1
1
1
1
1
1
1
1
1
1
1
1
1
1
1
1
1
1
1
1
1
1
1
1
1
1
1
1
1
1
1
1
1
1
1
1
1
1
1
1
1
1
1
1
1
1
1
1
1
1
1
1
1
1
1
1
1
1
1
1
1
1
1
1
1
1
1
1
1
1
1
1
1
1
1
1
1
1
1
1
1
1
1
1
1
1
1
1
1
1
1
1
1
1
1
1
1
1
1
1
1
1
1
1
1
1
1
1
1
1
1
1
1
1
1
1
1
1
1
1
1
1
1
1
1
1
1
1
1
1
1
1
1
1
1
1
1
1
1
1
1
1
1
1
1
1
1
1
1
1
1
1
1
1
1
1
1
1
1
1
1
1
1
1
1
1
1
1
1
1
1
1
1
1
1
1
1
1
1
1
1
1
1
1
1
1
1
1
1
1
1
1
1
1
1
1
1
1
1
1
1
1
1
1
1
1
1
1
1
1
1
1
1
1
1
1
1
1
1
1
1
1
1
1
1
1
1
1
1
1
1
1
1
1
1
1
1
1
1
1
1
1
1
1
1
1
1
1
1
1
1
1
1
1
1
1
1
1
1
1
1
1
1
1
1
1
1
1
1
1
1
1
1
1
1
1
1
1
1
1
1
1
1
1
1
1
1
1
1
1
1
1
1
1
1
1
1
1
1
1
1
1
1
1
1
1
1
1
1
1
1
1
1
1
1
1
1
1
1
1
1
1
1
1
1
1
1
1
1
1
1
1
1
1
1
1
1
1
1
1
1
1
1
1
1
1
1
1
1
1
1
1
1
1
1
1
1
1
1
1
1
1
1
1
1
1
1
1
1
1
1
1
1
1
1
1
1
1
1
1
1
1
1
1
1
1
1
1
1
1
1
1
1
1
1
1
1
1
1
1
1
1
1
1
1
1
1
1
1
1
1
1
1
1
1
1
1
1
1
1
1
1
1
1
1
1
1
1
1
1
1
1
1
1
1
1
1
1
1
1
1
1
1
1
1
1
1
1
1
1
1
1
1
1
1
1
1
1
1
1
1
1
1
1
1
1
1
1
1
1
1
1
1
1
1
1
1
1
1
1
1
1
1
1
1
1
1
1
1
1
1
1
1
1
1
1
1
1
1
1
1
1
1
1
1
1
1
1
1
1
1
1
1
1
1
1
1
1
1
1
1
1
1
1
1
1
1
1
1
1
1
1
1
1
1
1
1
1
1
1
1
1
1
1
1
1
1
1
1
1
1
1
1
1
1
1
1
1
1
1
1
1
1
1
1
1
1
1
1
1
1
1
1
1
1
1
1
1
1
1
1
1
1
1
1
1
1
1
1
1
1
1
1
1
1
1
1
1
1
1
1
1
1
1
1
1
1
1
1
1
1
1
1
1
1
1
1
1
1
1
1
1
1
1
1
1
1
1
1
1
1
1
1
1
1
1
1
1
1
1
1
1
1
1
1
1
1
1
1
1
1
1
1
1
1
1
1
1
1
1
1
1
1
1
1
1
1
1
1
1
1
1
1
1
1
1
1
1
1
1
1
1
1
1
1
1
1
1
1
1
1
1
1
1
1
1
1
1
1
1
1
1
1
1
1
1
1
1
1
1
1
1
1
1
1
1
1
1
1
1
1
1
1
1
1
1
1
1
1
1
1
1
1
1
1
1
1
1
1
1
1
1
1
1
1
1
1
1
1
1
1
1
1
1
1
1
1
1
1
1
1
1
1
1
1
1
1
1
1
1
1
1
1
1
1
1
1
1
1
1
1
1
1
1
1
1
1
1
1
1
1
1
1
1
1
1
1
1
1
1
1
1
1
1
1
1
1
1
1
1
1
1
1
1
1
1
1
1
1
1
1
1
1
1
1
1
1
1
1
1
1
1
1
1
1
1
1
1
1
1
1
1
1
1
1
1
1
1
1
1
1
1
1
1
1
1
1
1
1
1
1
1
1
1
1
1
1
1
1
1
1
1
1
1
1
1
1
1
1
1
1
1
1
1
1
1
1
1
1
1
1
1
1
1
1
1
1
1
1
1
1
1
1
1
1
1
1
1
1
1
1
1
1
1
1
1
1
1
1
1
1
1
1
1
1
1
1
1
1
1
1
1
1
1
1
1
1
1
1
1
1
1
1
1
1
1
1
1
1
1
1
1
1
1
1
1
1
1
1
1
1
1
1
1
1
1
1
1
1
1
1
1
1
1
1
1
1
1
1
1
1
1
1
1
1
1
1
1
1
1
1
1
1
1
1
1
1
1
1
1
1
1
1
1
1
1
1
1
1
1
1
1
1
1
1
1
1
1
1
1
1
1
1
1
1
1
1
1
1
1
1
1
1
1
1
1
1
1
1
1
1
1
1
1
1
1
1
1
1
1
1
1
1
1
1
1
1
1
1
1
1
1
1
1
1
1
1
1
1
1
1
1
1
1
1
1
1
1
1
1
1
1
1
1
1
1
1
1
1
1
1
1
1
1
1
1
1
1
1
1
1
1
1
1
1
1
1
1
1
1
1
1
1
1
1
1
1
1
1
1
1
1
1
1
1
1
1
1
1
1
1
1
1
1
1
1
1
1
1
1
1
1
1
1
1
1
1
1
1
1
1
1
1
1
1
1
1
1
1
1
1
1
1
1
1
1
1
1
1
1
1
1
1
1
1
1
1
1
1
1
1
1
1
1
1
1
1
1
1
1
1
1
1
1
1
1
1
1
1
1
1
1
1
1
1
1
1
1
1
1
1
1
1
1
1
1
1
1
1
1
1
1
1
1
1
1
1
1
1
1
1
1
1
1
1
1
1
1
1
1
1
1
1
1
1
1
1
1
1
1
1
1
1
1
1
1
1
1
1
1
1
1
1
1
1
1
1
1
1
1
1
1
1
1
1
1
1
1
1
1
1
1
1
1
1
1
1
1
1
1
1
1
1
1
1
1
1
1
1
1
1
1
1
1
1
1
1
1
1
1
1
1
1
1
1
1
1
1
1
1
1
1
1
1
1
1
1
1
1
1
1
1
1
1
1
1
1
1
1
1
1
1
1
1
1
1
1
1
1
1
1
1
1
1
1
1
1
1
1
1
1
1
1
1
1
1
1
1
1
1
1
1
1
1
1
1
1
1
1
1
1
1
1
1
1
1
1
1
1
1
1
1
1
1
1
1
1
1
1
1
1
1
1
1
1
1
1
1
1
1
1
1
1
1
1
1
1
1
1
1
1
1
1
1
1
1
1
1
1
1
1
1
1
1
1
1
1
1
1
1
1
1
1
1.26616
1.68263
2.22219
2.73453
3.24619
3.87415
4.33748
4.84325
5.31425
5.4565
5.67246
5.68404
5.59197
5.33712
4.90037
4.42648
4.21017
4.07048
3.85858
3.7785
3.79624
3.83676
3.8751
3.90666
3.9318
3.9655
4.0019
4.03284
4.05201
4.04939
4.04437
4.04952
4.06285
4.06555
4.06146
4.05131
4.04123
4.03405
4.03524
4.04199
4.0521
4.06465
4.07473
4.08331
4.09044
4.0931
4.09164
4.0829
4.07197
4.05951
4.0487
4.0451
4.04546
4.04815
4.05133
4.05431
4.05955
4.07025
4.0815
4.08993
4.09701
4.10275
4.10557
4.10533
4.09928
4.08768
4.07875
4.07183
4.06618
4.06141
4.05603
4.04729
4.03244
4.01225
3.98966
3.96792
3.94805
3.9316
3.91883
3.89882
0.999927
1.00093
1.01073
1.08983
1.19713
1.35658
1.64964
1.93434
2.36384
2.75906
3.19277
3.60418
3.88768
4.04682
4.11549
4.32409
4.40733
4.40191
4.29801
4.16719
4.15275
4.11507
4.07305
4.02274
3.96563
3.93784
3.93923
3.96139
4.00093
4.00877
4.01683
4.03634
4.05679
4.06208
4.06031
4.05718
4.05581
4.05396
4.05166
4.053
4.05206
4.04867
4.04785
4.05431
4.06521
4.07223
4.07352
4.07137
4.06961
4.0699
4.07222
4.07653
4.07886
4.07844
4.07585
4.07108
4.06757
4.06703
4.06771
4.06846
4.07119
4.07713
4.08502
4.0892
4.08918
4.08496
4.08181
4.08089
4.07844
4.07346
4.06625
4.05507
4.03758
4.01234
3.97873
3.94414
3.92159
3.91208
3.90648
3.89552
1
1
0.999999
1
1
0.999534
1.00122
1.01008
1.05256
1.16878
1.36592
1.7952
2.37501
3.13368
3.84918
4.34553
4.71734
4.69737
4.62493
4.54048
4.46355
4.3696
4.19029
4.05588
3.94963
3.92609
3.93283
3.95294
3.98171
3.99369
3.99916
4.01072
4.02393
4.04452
4.06177
4.06601
4.06804
4.07118
4.07592
4.07679
4.07166
4.05729
4.04486
4.03883
4.03774
4.03951
4.04184
4.04603
4.05479
4.06818
4.08182
4.09187
4.09631
4.09675
4.09484
4.09043
4.08375
4.07626
4.06798
4.06415
4.06323
4.06408
4.06718
4.0709
4.0739
4.0769
4.08013
4.08297
4.0835
4.07933
4.07116
4.05896
4.04067
4.01483
3.97887
3.93096
3.90393
3.89574
3.89229
3.89461
1
1
1
1
1
1
1
1
1
1
0.999458
1.00585
1.04684
1.20236
1.65561
2.26277
3.14788
3.68259
4.00644
4.25936
4.24161
4.25085
4.31249
4.29961
4.22544
4.12998
4.10375
4.07405
4.05001
3.99584
3.94305
3.93598
3.94462
3.97603
4.01943
4.04537
4.06149
4.08409
4.09557
4.09548
4.08728
4.07365
4.06012
4.04712
4.04172
4.04164
4.03991
4.03643
4.03731
4.04586
4.06381
4.08496
4.09998
4.10661
4.10695
4.10284
4.09424
4.0837
4.07609
4.07189
4.06953
4.06847
4.06899
4.06881
4.06906
4.07042
4.07288
4.07666
4.07856
4.07538
4.06824
4.05578
4.0354
4.008
3.97127
3.91984
3.8928
3.88494
3.88138
3.88579
1
1
1
1
1
1
1
1
1
1
1
0.999999
1
0.999667
1.0028
1.03639
1.18945
1.67156
2.23176
2.97705
3.53252
3.99723
4.37282
4.38869
4.38006
4.34892
4.29759
4.22534
4.12681
4.03693
3.9656
3.95033
3.95608
3.97416
3.99443
4.01101
4.02697
4.04392
4.05747
4.07025
4.07935
4.08196
4.07934
4.0712
4.06442
4.06122
4.05624
4.04718
4.04335
4.04468
4.05195
4.05986
4.06631
4.0723
4.07678
4.07942
4.08112
4.08235
4.08297
4.08138
4.07951
4.08231
4.08365
4.08187
4.08081
4.08105
4.08102
4.08074
4.07863
4.07344
4.06498
4.05032
4.0266
3.99659
3.9602
3.92003
3.89817
3.88894
3.88326
3.87964
1
1
1
1
1
1
1
1
1
1
1
1
1
1
0.999998
1
0.999737
1.00466
1.03665
1.17467
1.63481
2.22176
2.99314
3.45183
3.8411
4.1186
4.11898
4.13538
4.18668
4.17439
4.10943
4.07139
4.06217
4.04656
4.02723
4.00006
3.97536
3.97223
3.97971
4.00371
4.03784
4.06594
4.0789
4.08711
4.09406
4.09507
4.09289
4.0836
4.06454
4.05655
4.05751
4.05746
4.05444
4.05202
4.05163
4.05365
4.05795
4.06546
4.07578
4.08269
4.0867
4.09248
4.09556
4.09574
4.09422
4.09232
4.08945
4.08537
4.07965
4.07181
4.05968
4.04125
4.01568
3.98337
3.94966
3.92206
3.90792
3.90039
3.89599
3.88757
1
1
1
1
1
1
1
1
1
1
1
1
1
1
1
1
0.999999
0.999993
1.00001
0.999838
1.0052
1.04078
1.20513
1.66927
2.23248
2.96927
3.43703
3.87688
4.15972
4.18436
4.18933
4.18151
4.1624
4.1203
4.07566
4.0238
3.97666
3.96024
3.9627
3.9758
3.99743
4.02006
4.04221
4.06846
4.09332
4.10191
4.10209
4.09924
4.09591
4.08907
4.07438
4.06441
4.05857
4.0528
4.04953
4.05076
4.05287
4.05525
4.06235
4.07446
4.0841
4.09001
4.09181
4.09149
4.0874
4.08186
4.07714
4.07161
4.06532
4.0579
4.04768
4.03251
4.01007
3.9809
3.95125
3.93224
3.92441
3.91951
3.91458
3.9006
1
1
1
1
1
1
1
1
1
1
1
1
1
1
1
1
1
1
1
0.999998
0.999999
0.99999
0.999966
1.00796
1.04628
1.23706
1.71521
2.29685
2.98744
3.404
3.8084
4.0272
4.05553
4.08698
4.12138
4.11635
4.08029
4.04599
4.02248
4.00125
3.99807
4.00105
4.00484
4.01491
4.03082
4.05192
4.07421
4.08796
4.09383
4.09628
4.09927
4.09884
4.09424
4.086
4.07399
4.06671
4.06394
4.06215
4.06184
4.06915
4.07602
4.07851
4.07865
4.07639
4.07076
4.06664
4.06472
4.0637
4.06304
4.05912
4.05117
4.03736
4.01445
3.98246
3.9501
3.93697
3.93116
3.92807
3.92427
3.90134
1
1
1
1
1
1
1
1
1
1
1
1
1
1
1
1
1
1
1
1
1
1
0.999999
1
0.999956
1.00027
1.01147
1.06054
1.29932
1.80251
2.45753
3.09022
3.494
3.91426
4.05829
4.09253
4.11173
4.11345
4.09949
4.06954
4.04929
4.02796
4.0102
3.99972
3.99503
3.99805
4.00866
4.02212
4.04085
4.06386
4.0902
4.10448
4.10535
4.10439
4.10115
4.09773
4.09321
4.08319
4.07269
4.06817
4.06948
4.07056
4.07084
4.06929
4.06722
4.06635
4.06576
4.06571
4.06578
4.06277
4.05521
4.04186
4.01903
3.98297
3.94184
3.92524
3.92103
3.91805
3.91324
3.89745
1
1
1
1
1
1
1
1
1
1
1
1
1
1
1
1
1
1
1
1
1
1
1
1
0.999999
0.999998
1
0.999954
1.00117
1.01927
1.09612
1.43212
1.95183
2.62123
3.14732
3.52964
3.86488
4.04162
4.06883
4.08237
4.11806
4.12075
4.10526
4.07527
4.0422
4.00955
3.99011
3.99017
4.00161
4.02226
4.046
4.06597
4.07771
4.08673
4.0938
4.09297
4.08798
4.08545
4.08455
4.08428
4.08412
4.08161
4.07935
4.07683
4.07211
4.06806
4.06735
4.06866
4.06952
4.06633
4.05856
4.04422
4.01995
3.9834
3.93641
3.90461
3.89328
3.88683
3.88387
3.88718
1
1
1
1
1
1
1
1
1
1
1
1
1
1
1
1
1
1
1
1
1
1
1
1
1
1
1
0.999998
0.999998
1.00001
1
1.00406
1.03309
1.1466
1.55574
2.14071
2.86287
3.29649
3.68084
3.92992
4.04962
4.10621
4.11494
4.11017
4.10367
4.08634
4.05866
4.03088
4.02116
4.02487
4.03379
4.0452
4.05001
4.05225
4.05283
4.05375
4.05591
4.06252
4.07194
4.07856
4.0833
4.08597
4.08688
4.08699
4.08497
4.08186
4.08076
4.07943
4.07622
4.07221
4.06422
4.04825
4.02296
3.98383
3.92657
3.88329
3.86871
3.86272
3.86038
3.86827
1
1
1
1
1
1
1
1
1
1
1
1
1
1
1
1
1
1
1
1
1
1
1
1
1
1
1
1
1
1
1
1
0.999983
1.00024
1.01029
1.05766
1.27615
1.80852
2.46267
3.07493
3.45633
3.77703
3.96144
4.05029
4.07834
4.09439
4.09685
4.09588
4.096
4.09722
4.09226
4.07996
4.06055
4.04163
4.03394
4.03438
4.03524
4.03884
4.04885
4.06043
4.06964
4.07817
4.08374
4.08347
4.08155
4.08249
4.08518
4.08337
4.07681
4.0685
4.05911
4.04486
4.02474
3.99644
3.95027
3.89596
3.86532
3.85806
3.85647
3.86258
1
1
1
1
1
1
1
1
1
1
1
1
1
1
1
1
1
1
1
1
1
1
1
1
1
1
1
1
1
1
1
1
0.999999
0.999998
1.00001
1.00001
1.00191
1.02888
1.11956
1.48495
2.11874
2.89674
3.32852
3.63601
3.84947
3.99714
4.0432
4.07312
4.10684
4.12542
4.13009
4.12727
4.10977
4.08605
4.06932
4.05835
4.04801
4.04356
4.04703
4.05954
4.06724
4.07138
4.07266
4.07077
4.07053
4.07353
4.07737
4.07529
4.06868
4.05524
4.03888
4.02741
4.01329
3.98791
3.95893
3.93159
3.90256
3.87436
3.85775
3.86061
1
1
1
1
1
1
1
1
1
1
1
1
1
1
1
1
1
1
1
1
1
1
1
1
1
1
1
1
1
1
1
1
1
1
1
1
1
0.999997
1.00025
1.01001
1.07008
1.28321
1.8553
2.60616
3.26057
3.54872
3.77222
3.87615
3.95992
4.04068
4.10009
4.10896
4.10839
4.09479
4.08678
4.08608
4.0881
4.08669
4.08913
4.09019
4.08598
4.08287
4.0786
4.07222
4.06944
4.07084
4.07232
4.06933
4.06137
4.04396
4.01781
3.99038
3.97843
3.96614
3.94986
3.93593
3.93015
3.91865
3.89212
3.86688
1
1
1
1
1
1
1
1
1
1
1
1
1
1
1
1
1
1
1
1
1
1
1
1
1
1
1
1
1
1
1
1
1
1
1
1
1
0.999999
0.999999
0.999993
1.00009
1.00263
1.04515
1.18051
1.614
2.32787
3.25395
3.59022
3.74508
3.88274
3.95516
3.9867
4.00522
4.01384
4.03034
4.06432
4.08872
4.09816
4.10282
4.10591
4.10382
4.10141
4.0971
4.08679
4.08213
4.08352
4.08634
4.0861
4.07837
4.05604
4.01646
3.97829
3.94901
3.93119
3.92383
3.93245
3.94423
3.93891
3.92784
3.89398
1
1
1
1
1
1
1
1
1
1
1
1
1
1
1
1
1
1
1
1
1
1
1
1
1
1
1
1
1
1
1
1
1
1
1
1
1
1
1
0.999999
0.999999
0.999995
1.00005
1.001
1.02136
1.13697
1.49912
2.19713
3.00492
3.71568
3.86012
3.92966
3.95209
3.93296
3.94658
3.98739
4.02967
4.05349
4.0626
4.06978
4.07589
4.07989
4.08142
4.07484
4.073
4.07592
4.08438
4.09302
4.0965
4.09044
4.06242
4.00601
3.94353
3.91395
3.90476
3.90717
3.93039
3.94273
3.94057
3.918
1
1
1
1
1
1
1
1
1
1
1
1
1
1
1
1
1
1
1
1
1
1
1
1
1
1
1
1
1
1
1
1
1
1
1
1
1
1
1
1
1
1
1
0.999998
1
1.00072
1.01119
1.12799
1.41892
2.09276
2.89948
3.65779
3.93862
3.95418
4.01155
4.02665
4.03512
4.04304
4.04321
4.03454
4.03473
4.04065
4.04687
4.04942
4.04981
4.04819
4.05313
4.06951
4.09015
4.09593
4.08679
4.0597
3.99459
3.91543
3.89645
3.89365
3.89593
3.92132
3.93542
3.92163
1
1
1
1
1
1
1
1
1
1
1
1
1
1
1
1
1
1
1
1
1
1
1
1
1
1
1
1
1
1
1
1
1
1
1
1
1
1
1
1
1
1
1
1
1
1
0.999993
1.00079
1.00776
1.09486
1.40932
2.08104
2.85922
3.57259
3.92288
4.085
4.10725
4.11291
4.10318
4.07521
4.06107
4.06106
4.05622
4.04966
4.04598
4.04087
4.02912
4.0141
4.019
4.05017
4.08892
4.088
4.05843
3.98371
3.90171
3.87109
3.8667
3.87164
3.9028
3.91411
1
1
1
1
1
1
1
1
1
1
1
1
1
1
1
1
1
1
1
1
1
1
1
1
1
1
1
1
1
1
1
1
1
1
1
1
1
1
1
1
1
1
1
1
1
1
0.999999
1
0.999993
1.00057
1.00851
1.08742
1.4774
2.16226
2.91746
3.51336
3.94881
4.07648
4.07649
4.08201
4.09423
4.10087
4.10428
4.11127
4.11319
4.09759
4.05448
4.01092
3.99697
3.99904
4.03665
4.07809
4.06815
4.03416
3.94908
3.86698
3.84819
3.84467
3.85157
3.8864
1
1
1
1
1
1
1
1
1
1
1
1
1
1
1
1
1
1
1
1
1
1
1
1
1
1
1
1
1
1
1
1
1
1
1
1
1
1
1
1
1
1
1
1
1
1
1
1
0.999999
1
0.999995
1.00056
1.01431
1.09647
1.51473
2.29669
3.17126
3.58415
3.79151
3.9628
3.99908
4.00837
4.04841
4.11973
4.15065
4.15665
4.15132
4.0938
4.00408
3.9804
3.97767
4.00522
4.0498
4.03581
3.99884
3.93001
3.85491
3.83635
3.83712
3.84703
1
1
1
1
1
1
1
1
1
1
1
1
1
1
1
1
1
1
1
1
1
1
1
1
1
1
1
1
1
1
1
1
1
1
1
1
1
1
1
1
1
1
1
1
1
1
1
1
1
1
0.999999
0.999999
1
1.00068
1.02011
1.13936
1.60495
2.46406
3.4436
3.81375
3.86384
3.86029
3.86015
3.92882
4.08909
4.18259
4.19415
4.17504
4.0888
3.97503
3.93674
3.93664
3.9756
4.02923
4.02494
3.9944
3.93054
3.85903
3.82461
3.82186
1
1
1
1
1
1
1
1
1
1
1
1
1
1
1
1
1
1
1
1
1
1
1
1
1
1
1
1
1
1
1
1
1
1
1
1
1
1
1
1
1
1
1
1
1
1
1
1
1
1
1
1
1
0.999999
1.00003
1.00139
1.03016
1.21668
1.80908
2.70201
3.63328
3.94782
3.895
3.83852
3.92053
4.08892
4.18049
4.18239
4.15527
4.0516
3.94035
3.91304
3.91133
3.95185
3.99993
3.99323
3.96611
3.92117
3.85727
3.81853
1
1
1
1
1
1
1
1
1
1
1
1
1
1
1
1
1
1
1
1
1
1
1
1
1
1
1
1
1
1
1
1
1
1
1
1
1
1
1
1
1
1
1
1
1
1
1
1
1
1
1
1
1
1
1
0.999998
1.0001
1.0036
1.05903
1.33459
2.09824
3.17025
3.85845
3.88691
3.86533
3.93217
4.09668
4.17845
4.1789
4.14828
4.05382
3.93701
3.90487
3.89674
3.89798
3.92806
3.94749
3.93884
3.91623
3.87087
1
1
1
1
1
1
1
1
1
1
1
1
1
1
1
1
1
1
1
1
1
1
1
1
1
1
1
1
1
1
1
1
1
1
1
1
1
1
1
1
1
1
1
1
1
1
1
1
1
1
1
1
1
1
1
0.999999
1
0.999998
1.00035
1.01008
1.12593
1.58802
2.59985
3.61578
3.77479
3.81441
3.9114
4.09573
4.17394
4.1753
4.14783
4.07371
3.95634
3.87895
3.85778
3.84769
3.86437
3.90634
3.92209
3.90772
1
1
1
1
1
1
1
1
1
1
1
1
1
1
1
1
1
1
1
1
1
1
1
1
1
1
1
1
1
1
1
1
1
1
1
1
1
1
1
1
1
1
1
1
1
1
1
1
1
1
1
1
1
1
1
1
1
1
0.999999
1.00001
1.00151
1.03363
1.27075
2.0139
3.11322
3.66389
3.77777
3.86326
3.9879
4.1179
4.14594
4.12818
4.06704
3.98047
3.88723
3.84426
3.83404
3.83436
3.87365
3.90189
1
1
1
1
1
1
1
1
1
1
1
1
1
1
1
1
1
1
1
1
1
1
1
1
1
1
1
1
1
1
1
1
1
1
1
1
1
1
1
1
1
1
1
1
1
1
1
1
1
1
1
1
1
1
1
1
1
1
1
1
0.999998
1.00016
1.00773
1.09721
1.55099
2.51791
3.58784
3.76778
3.80826
3.87368
3.9999
4.08449
4.09219
4.06797
4.01671
3.94279
3.85138
3.81708
3.81488
3.83064
1
1
1
1
1
1
1
1
1
1
1
1
1
1
1
1
1
1
1
1
1
1
1
1
1
1
1
1
1
1
1
1
1
1
1
1
1
1
1
1
1
1
1
1
1
1
1
1
1
1
1
1
1
1
1
1
1
1
1
1
1
0.999999
1.00001
1.00123
1.03209
1.26434
2.0421
3.24345
3.79665
3.80166
3.82544
3.89765
4.00533
4.05769
4.05365
4.02108
3.95735
3.8585
3.79024
3.78668
1
1
1
1
1
1
1
1
1
1
1
1
1
1
1
1
1
1
1
1
1
1
1
1
1
1
1
1
1
1
1
1
1
1
1
1
1
1
1
1
1
1
1
1
1
1
1
1
1
1
1
1
1
1
1
1
1
1
1
1
1
1
1
0.999999
1.0002
1.0092
1.11826
1.69404
2.78209
3.69853
3.83475
3.81459
3.82399
3.89224
3.98057
4.00569
3.98722
3.9445
3.85998
3.79077
1
1
1
1
1
1
1
1
1
1
1
1
1
1
1
1
1
1
1
1
1
1
1
1
1
1
1
1
1
1
1
1
1
1
1
1
1
1
1
1
1
1
1
1
1
1
1
1
1
1
1
1
1
1
1
1
1
1
1
1
1
1
1
1
0.999999
1.00003
1.00229
1.05669
1.40623
2.37654
3.42776
3.90635
3.87256
3.7999
3.80139
3.84381
3.92677
3.94068
3.92325
3.86452
1
1
1
1
1
1
1
1
1
1
1
1
1
1
1
1
1
1
1
1
1
1
1
1
1
1
1
1
1
1
1
1
1
1
1
1
1
1
1
1
1
1
1
1
1
1
1
1
1
1
1
1
1
1
1
1
1
1
1
1
1
1
1
1
1
1
1
1.00066
1.02331
1.24499
2.02015
3.14341
3.84054
3.90703
3.82034
3.7424
3.75928
3.85664
3.93141
3.91372
1
1
1
1
1
1
1
1
1
1
1
1
1
1
1
1
1
1
1
1
1
1
1
1
1
1
1
1
1
1
1
1
1
1
1
1
1
1
1
1
1
1
1
1
1
1
1
1
1
1
1
1
1
1
1
1
1
1
1
1
1
1
1
1
1
1
1
1
1.00021
1.00867
1.14949
1.71923
2.82172
3.73284
3.85473
3.8044
3.70337
3.73238
3.85558
3.92753
1
1
1
1
1
1
1
1
1
1
1
1
1
1
1
1
1
1
1
1
1
1
1
1
1
1
1
1
1
1
1
1
1
1
1
1
1
1
1
1
1
1
1
1
1
1
1
1
1
1
1
1
1
1
1
1
1
1
1
1
1
1
1
1
1
1
1
1
1
1.00005
1.00356
1.07669
1.52161
2.46393
3.50639
3.79919
3.76867
3.69035
3.7355
3.87212
1
1
1
1
1
1
1
1
1
1
1
1
1
1
1
1
1
1
1
1
1
1
1
1
1
1
1
1
1
1
1
1
1
1
1
1
1
1
1
1
1
1
1
1
1
1
1
1
1
1
1
1
1
1
1
1
1
1
1
1
1
1
1
1
1
1
1
1
1
1
1.00001
1.00146
1.03727
1.34427
2.16218
3.26775
3.75194
3.72285
3.66718
3.75216
1
1
1
1
1
1
1
1
1
1
1
1
1
1
1
1
1
1
1
1
1
1
1
1
1
1
1
1
1
1
1
1
1
1
1
1
1
1
1
1
1
1
1
1
1
1
1
1
1
1
1
1
1
1
1
1
1
1
1
1
1
1
1
1
1
1
1
1
1
1
1
1
1.00049
1.0182
1.2188
1.90524
3.05097
3.66258
3.655
3.68464
1
1
1
1
1
1
1
1
1
1
1
1
1
1
1
1
1
1
1
1
1
1
1
1
1
1
1
1
1
1
1
1
1
1
1
1
1
1
1
1
1
1
1
1
1
1
1
1
1
1
1
1
1
1
1
1
1
1
1
1
1
1
1
1
1
1
1
1
1
1
1
1
1
1.00017
1.00866
1.13585
1.68591
2.73894
3.5209
3.7269
1
1
1
1
1
1
1
1
1
1
1
1
1
1
1
1
1
1
1
1
1
1
1
1
1
1
1
1
1
1
1
1
1
1
1
1
1
1
1
1
1
1
1
1
1
1
1
1
1
1
1
1
1
1
1
1
1
1
1
1
1
1
1
1
1
1
1
1
1
1
1
1
1
1
1.00006
1.00406
1.07526
1.51403
2.45525
3.45559
1
1
1
1
1
1
1
1
1
1
1
1
1
1
1
1
1
1
1
1
1
1
1
1
1
1
1
1
1
1
1
1
1
1
1
1
1
1
1
1
1
1
1
1
1
1
1
1
1
1
1
1
1
1
1
1
1
1
1
1
1
1
1
1
1
1
1
1
1
1
1
1
1
1
1
1.00002
1.00169
1.04549
1.32811
2.56992
1
1
1
1
1
1
1
1
1
1
1
1
1
1
1
1
1
1
1
1
1
1
1
1
1
1
1
1
1
1
1
1
1
1
1
1
1
1
1
1
1
1
1
1
1
1
1
1
1
1
1
1
1
1
1
1
1
1
1
1
1
1
1
1
1
1
1
1
1
1
1
1
1
1
1
1
1
1.00092
1.01789
1.60321
1
1
1
1
1
1
1
1
1
1
1
1
1
1
1
1
1
1
1
1
1
1
1
1
1
1
1
1
1
1
1
1
1
1
1
1
1
1
1
1
1
1
1
1
1
1
1
1
1
1
1
1
1
1
1
1
1
1
1
1
1
1
1
1
1
1
1
1
1
1
1
1
1
1
1
1
1
1
1.0004
1.12365
1
1
1
1
1
1
1
1
1
1
1
1
1
1
1
1
1
1
1
1
1
1
1
1
1
1
1
1
1
1
1
1
1
1
1
1
1
1
1
1
1
1
1
1
1
1
1
1
1
1
1
1
1
1
1
1
1
1
1
1
1
1
1
1
1
1
1
1
1
1
1
1
1
1
1
1
1
1
1
1.0128
)
;

boundaryField
{
    inlet
    {
        type            fixedValue;
        value           uniform 1;
    }
    outlet
    {
        type            zeroGradient;
    }
    bottom
    {
        type            symmetryPlane;
    }
    top
    {
        type            symmetryPlane;
    }
    obstacle
    {
        type            zeroGradient;
    }
    defaultFaces
    {
        type            empty;
    }
}


// ************************************************************************* //
