/*--------------------------------*- C++ -*----------------------------------*\
| =========                 |                                                 |
| \\      /  F ield         | OpenFOAM: The Open Source CFD Toolbox           |
|  \\    /   O peration     | Version:  2206                                  |
|   \\  /    A nd           | Website:  www.openfoam.com                      |
|    \\/     M anipulation  |                                                 |
\*---------------------------------------------------------------------------*/
FoamFile
{
    version     2.0;
    format      ascii;
    arch        "LSB;label=32;scalar=64";
    class       volScalarField;
    location    "0.1";
    object      T;
}
// * * * * * * * * * * * * * * * * * * * * * * * * * * * * * * * * * * * * * //

dimensions      [0 0 0 1 0 0 0];

internalField   nonuniform List<scalar> 
4800
(
1
1
1
1
1
1
1
1
1
1
1
1
1
1
1
1
1
1
1
1
1
1
1
1
1
1
1
1
1
1
1
1
1
1
1
1
1
1
1
1
1
1
1
1
1
1
1
1
1
1
1
1
1
1
1
1
1
1
1
1
1
1
1
1
1
1
1
1
1
1
1
1
1
1
1
1
1
1
1
1
1
1
1
1
1
1
1
1
1
1
1
1
1
1
1
1
1
1
1
1
1
1
1
1
1
1
1
1
1
1
1
1
1
1
1
1
1
1
1
1
1
1
1
1
1
1
1
1
1
1
1
1
1
1
1
1
1
1
1
1
1
1
1
1
1
1
1
1
1
1
1
1
1
1
1
1
1
1
1
1
1
1
1
1
1
1
1
1
1
1
1
1
1
1
1
1
1
1
1
1
1
1
1
1
1
1
1
1
1
1
1
1
1
1
1
1
1
1
1
1
1
1
1
1
1
1
1
1
1
1
1
1
1
1
1
1
1
1
1
1
1
1
1
1
1
1
1
1
1
1
1
1
1
1
1
1
1
1
1
1
1
1
1
1
1
1
1
1
1
1
1
1
1
1
1
1
1
1
1
1
1
1
1
1
1
1
1
1
1
1
1
1
1
1
1
1
1
1
1
1
1
1
1
1
1
1
1
1
1
1
1
1
1
1
1
1
1
1
1
1
1
1
1
1
1
1
1
1
1
1
1
1
1
1
1
1
1
1
1
1
1
1
1
1
1
1
1
1
1
1
1
1
1
1
1
1
1
1
1
1
1
1
1
1
1
1
1
1
1
1
1
1
1
1
1
1
1
1
1
1
1
1
1
1
1
1
1
1
1
1
1
1
1
1
1
1
1
1
1
1
1
1
1
1
1
1
1
1
1
1
1
1
1
1
1
1
1
1
1
1
1
1
1
1
1
1
1
1
1
1
1
1
1
1
1
1
1
1
1
1
1
1
1
1
1
1
1
1
1
1
1
1
1
1
1
1
1
1
1
1
1
1
1
1
1
1
1
1
1
1
1
1
1
1
1
1
1
1
1
1
1
1
1
1
1
1
1
1
1
1
1
1
1
1
1
1
1
1
1
1
1
1
1
1
1
1
1
1
1
1
1
1
1
1
1
1
1
1
1
1
1
1
1
1
1
1
1
1
1
1
1
1
1
1
1
1
1
1
1
1
1
1
1
1
1
1
1
1
1
1
1
1
1
1
1
1
1
1
1
1
1
1
1
1
1
1
1
1
1
1
1
1
1
1
1
1
1
1
1
1
1
1
1
1
1
1
1
1
1
1
1
1
1
1
1
1
1
1
1
1
1
1
1
1
1
1
1
1
1
1
1
1
1
1
1
1
1
1
1
1
1
1
1
1
1
1
1
1
1
1
1
1
1
1
1
1
1
1
1
1
1
1
1
1
1
1
1
1
1
1
1
1
1
1
1
1
1
1
1
1
1
1
1
1
1
1
1
1
1
1
1
1
1
1
1
1
1
1
1
1
1
1
1
1
1
1
1
1
1
1
1
1
1
1
1
1
1
1
1
1
1
1
1
1
1
1
1
1
1
1
1
1
1
1
1
1
1
1
1
1
1
1
1
1
1
1
1
1
1
1
1
1
1
1
1
1
1
1
1
1
1
1
1
1
1
1
1
1
1
1
1
1
1
1
1
1
1
1
1
1
1
1
1
1
1
1
1
1
1
1
1
1
1
1
1
1
1
1
1
1
1
1
1
1
1
1
1
1
1
1
1
1
1
1
1
1
1
1
1
1
1
1
1
1
1
1
1
1
1
1
1
1
1
1
1
1
1
1
1
1
1
1
1
1
1
1
1
1
1
1
1
1
1
1
1
1
1
1
1
1
1
1
1
1
1
1
1
1
1
1
1
1
1
1
1
1
1
1
1
1
1
1
1
1
1
1
1
1
1
1
1
1
1
1
1
1
1
1
1
1
1
1
1
1
1
1
1
1
1
1
1
1
1
1
1
1
1
1
1
1
1
1
1
1
1
1
1
1
1
1
1
1
1
1
1
1
1
1
1
1
1
1
1
1
1
1
1
1
1
1
1
1
1
1
1
1
1
1
1
1
1
1
1
1
1
1
1
1
1
1
1
1
1
1
1
1
1
1
1
1
1
1
1
1
1
1
1
1
1
1
1
1
1
1
1
1
1
1
1
1
1
1
1
1
1
1
1
1
1
1
1
1
1
1
1
1
1
1
1
1
1
1
1
1
1
1
1
1
1
1
1
1
1
1
1
1
1
1
1
1
1
1
1
1
1
1
1
1
1
1
1
1
1
1
1
1
1
1
1
1
1
1
1
1
1
1
1
1
1
1
1
1
1
1
1
1
1
1
1
1
1
1
1
1
1
1
1
1
1
1
1
1
1
1
1
1
1
1
1
1
1
1
1
1
1
1
1
1
1
1
1
1
1
1
1
1
1
1
1
1
1
1
1
1
1
1
1
1
1
1
1
1
1
1
1
1
1
1
1
1
1
1
1
1
1
1
1
1
1
1
1
1
1
1
1
1
1
1
1
1
1
1
1
1
1
1
1
1
1
1
1
1
1
1
1
1
1
1
1
1
1
1
1
1
1
1
1
1
1
1
1
1
1
1
1
1
1
1
1
1
1
1
1
1
1
1
1
1
1
1
1
1
1
1
1
1
1
1
1
1
1
1
1
1
1
1
1
1
1
1
1
1
1
1
1
1
1
1
1
1
1
1
1
1
1
1
1
1
1
1
1
1
1
1
1
1
1
1
1
1
1
1
1
1
1
1
1
1
1
1
1
1
1
1
1
1
1
1
1
1
1
1
1
1
1
1
1
1
1
1
1
1
1
1
1
1
1
1
1
1
1
1
1
1
1
1
1
1
1
1
1
1
1
1
1
1
1
1
1
1
1
1
1
1
1
1
1
1
1
1
1
1
1
1
1
1
1
1
1
1
1
1
1
1
1
1
1
1
1
1
1
1
1
1
1
1
1
1
1
1
1
1
1
1
1
1
1
1
1
1
1
1
1
1
1
1
1
1
1
1
1
1
1
1
1
1
1
1
1
1
1
1
1
1
1
1
1
1
1
1
1
1
1
1
1
1
1
1
1
1
1
1
1
1
1
1
1
1
1
1
1
1
1
1
1
1
1
1
1
1
1
1
1
1
1
1
1
1
1
1
1
1
1
1
1
1
1
1
1
1
1
1
1
1
1
1
1
1
1
1
1
1
1
1
1
1
1
1
1
1
1
1
1
1
1
1
1
1
1
1
1
1
1
1
1
1
1
1
1
1
1
1
1
1
1
1
1
1
1
1
1
1
1
1
1
1
1
1
1
1
1
1
1
1
1
1
1
1
1
1
1
1
1
1
1
1
1
1
1
1
1
1
1
1
1
1
1
1
1
1
1
1
1
1
1
1
1
1
1
1
1
1
1
1
1
1
1
1
1
1
1
1
1
1
1
1
1
1
1
1
1
1
1
1
1
1
1
1
1
1
1
1
1
1
1
1
1
1
1
1
1
1
1
1
1
1
1
1
1
1
1
1
1
1
1
1
1
1
1
1
1
1
1
1
1
1
1
1
1
1
1
1
1
1
1
1
1
1
1
1
1
1
1
1
1
1
1
1
1
1
1.07181
1.16599
1.26832
1.35521
1.43385
1.52078
1.58638
1.65179
1.70917
1.72816
1.74804
1.74977
1.74252
1.72195
1.68131
1.6324
1.60689
1.58909
1.5632
1.55825
1.56132
1.56715
1.57199
1.5753
1.57835
1.58278
1.58792
1.5925
1.59551
1.59542
1.59509
1.59568
1.5973
1.5978
1.5975
1.59681
1.59622
1.59586
1.5963
1.59749
1.59875
1.60009
1.60124
1.6024
1.60355
1.60409
1.60402
1.60323
1.60217
1.60095
1.60002
1.59992
1.60023
1.60083
1.60121
1.6015
1.60202
1.60316
1.60434
1.60521
1.60596
1.60664
1.60712
1.60724
1.60688
1.60591
1.60503
1.60421
1.6034
1.60265
1.6019
1.60087
1.59927
1.5972
1.59487
1.59259
1.59053
1.58865
1.5869
1.58404
0.999968
1.0004
1.00401
1.03371
1.07056
1.12045
1.20167
1.26201
1.33922
1.39729
1.44965
1.49872
1.53323
1.55625
1.57109
1.60815
1.63098
1.63169
1.62226
1.61088
1.61096
1.60802
1.60317
1.59668
1.58994
1.58672
1.58691
1.58962
1.59445
1.59535
1.59655
1.59929
1.60153
1.60163
1.60129
1.601
1.60117
1.60141
1.60144
1.60169
1.6015
1.60098
1.60091
1.60186
1.6035
1.60455
1.60473
1.60454
1.60446
1.6046
1.60513
1.60587
1.60625
1.60619
1.60579
1.60506
1.60452
1.6044
1.60444
1.60451
1.6048
1.60545
1.6064
1.60709
1.60724
1.60702
1.60675
1.60658
1.60611
1.60521
1.60409
1.60268
1.60073
1.59808
1.59458
1.59101
1.58858
1.58731
1.58639
1.58472
1
1
1
1
1
0.999833
1.00048
1.00375
1.01935
1.06045
1.12231
1.23565
1.35507
1.48196
1.58561
1.6499
1.69175
1.68841
1.67881
1.66811
1.6591
1.64912
1.62949
1.6145
1.6029
1.59857
1.59887
1.60056
1.60345
1.60542
1.60683
1.60884
1.60973
1.61056
1.61137
1.61169
1.61214
1.61289
1.61341
1.61327
1.61215
1.6099
1.60843
1.60797
1.60798
1.6083
1.60848
1.60877
1.60956
1.61105
1.61277
1.61397
1.61425
1.61407
1.61336
1.61228
1.6112
1.61024
1.60926
1.60874
1.60853
1.60853
1.60876
1.60922
1.60971
1.61018
1.61045
1.61052
1.61033
1.60931
1.6078
1.60609
1.60398
1.60122
1.5975
1.59255
1.58937
1.58801
1.58736
1.58744
1
1
1
1
1
1
1
1
1
1
0.999809
1.00228
1.01869
1.08129
1.23328
1.37547
1.52381
1.59338
1.62924
1.65394
1.6499
1.64862
1.65715
1.65729
1.6504
1.63907
1.63477
1.6306
1.62744
1.62199
1.61591
1.61364
1.61396
1.61617
1.62023
1.6231
1.62514
1.62762
1.62821
1.6279
1.62627
1.62397
1.62206
1.62034
1.61932
1.61894
1.61829
1.6174
1.61723
1.61786
1.61976
1.62195
1.62321
1.62345
1.62301
1.62186
1.62049
1.61911
1.618
1.61714
1.61645
1.616
1.61577
1.61563
1.61565
1.61576
1.6158
1.61575
1.61552
1.61452
1.61296
1.61113
1.60874
1.60571
1.6017
1.59593
1.59239
1.59107
1.59045
1.59066
1
1
1
1
1
1
1
1
1
1
1
1
1
0.999866
1.00115
1.01503
1.07683
1.23589
1.36713
1.49369
1.57454
1.63476
1.68384
1.68455
1.68131
1.6747
1.66709
1.65849
1.64759
1.63905
1.63029
1.62513
1.62504
1.6261
1.62829
1.63073
1.63267
1.63389
1.63431
1.63456
1.63482
1.63508
1.63482
1.63373
1.6322
1.63099
1.62941
1.62752
1.62683
1.62697
1.62773
1.62828
1.62839
1.62838
1.62828
1.62804
1.62787
1.62775
1.62747
1.62674
1.62591
1.62574
1.62548
1.62504
1.62481
1.62469
1.62435
1.62379
1.6229
1.62146
1.61973
1.6176
1.61473
1.61125
1.60703
1.60223
1.59914
1.59742
1.59631
1.59522
1
1
1
1
1
1
1
1
1
1
1
1
1
1
0.999999
1
0.999892
1.00183
1.01483
1.06914
1.22091
1.36282
1.49685
1.56224
1.61286
1.64779
1.64781
1.64982
1.65712
1.65666
1.64945
1.64284
1.64064
1.63827
1.63629
1.63418
1.631
1.6298
1.63007
1.63172
1.63498
1.63837
1.64002
1.64085
1.64112
1.64076
1.63972
1.63769
1.63534
1.63445
1.63441
1.63418
1.63331
1.63238
1.63179
1.63166
1.63186
1.6326
1.6335
1.63374
1.63366
1.6338
1.63387
1.63378
1.63348
1.63307
1.63233
1.63126
1.62985
1.62816
1.62608
1.6235
1.62033
1.61648
1.61251
1.6091
1.60689
1.6052
1.60402
1.60211
1
1
1
1
1
1
1
1
1
1
1
1
1
1
1
1
1
0.999997
1
0.999933
1.00198
1.01618
1.07907
1.22593
1.35397
1.48154
1.5514
1.61313
1.65345
1.654
1.65384
1.65267
1.65033
1.64582
1.64098
1.6356
1.63022
1.62767
1.62779
1.62898
1.63134
1.63414
1.63692
1.63996
1.64232
1.64278
1.64256
1.64189
1.64142
1.64063
1.6389
1.63747
1.63634
1.63514
1.63445
1.63446
1.63462
1.63485
1.63549
1.63646
1.63709
1.63747
1.63759
1.63756
1.63713
1.63635
1.63539
1.6342
1.63287
1.63143
1.62974
1.6276
1.62479
1.62134
1.61793
1.61562
1.61423
1.61298
1.61173
1.60906
1
1
1
1
1
1
1
1
1
1
1
1
1
1
1
1
1
1
1
0.999999
1
0.999997
0.999981
1.00299
1.0179
1.08891
1.23468
1.36213
1.48036
1.54093
1.59727
1.6284
1.63364
1.6384
1.64277
1.64211
1.63718
1.63249
1.63012
1.6287
1.62876
1.62954
1.6302
1.63147
1.63325
1.63571
1.63835
1.63996
1.64067
1.64101
1.64125
1.64093
1.63998
1.63887
1.63759
1.63682
1.63651
1.63626
1.63613
1.63667
1.63725
1.6376
1.63767
1.6375
1.63693
1.6363
1.63577
1.63531
1.63492
1.63412
1.63287
1.631
1.62817
1.62438
1.62059
1.61892
1.61791
1.61712
1.61623
1.61272
1
1
1
1
1
1
1
1
1
1
1
1
1
1
1
1
1
1
1
1
1
1
1
1
0.999983
1.00009
1.00428
1.02309
1.10819
1.25203
1.38289
1.49025
1.5493
1.60706
1.62927
1.63184
1.63269
1.63364
1.63308
1.63133
1.63008
1.62787
1.62531
1.62398
1.62386
1.62469
1.62681
1.62943
1.63215
1.63463
1.63716
1.63858
1.63871
1.63896
1.63909
1.63903
1.6386
1.63734
1.63611
1.63569
1.63598
1.63651
1.63682
1.63673
1.63651
1.63627
1.63607
1.63591
1.63582
1.63535
1.63427
1.63252
1.62973
1.62547
1.62069
1.61867
1.61793
1.61729
1.61648
1.61426
1
1
1
1
1
1
1
1
1
1
1
1
1
1
1
1
1
1
1
1
1
1
1
1
1
0.999999
1
0.999981
1.00041
1.00714
1.03603
1.15011
1.28524
1.40958
1.49363
1.54586
1.59261
1.61874
1.62496
1.62787
1.63251
1.63257
1.63004
1.62576
1.62231
1.62032
1.6196
1.62031
1.62217
1.62433
1.62711
1.63024
1.63252
1.63431
1.63559
1.6357
1.63524
1.63481
1.63486
1.63516
1.63559
1.63589
1.63616
1.63613
1.63581
1.63552
1.63548
1.63563
1.63569
1.63526
1.63426
1.63254
1.62972
1.62552
1.62035
1.61697
1.61556
1.61452
1.61389
1.61408
1
1
1
1
1
1
1
1
1
1
1
1
1
1
1
1
1
1
1
1
1
1
1
1
1
1
1
0.999999
0.999999
1
0.999998
1.00145
1.01236
1.05394
1.184
1.31933
1.44241
1.5099
1.5642
1.60145
1.6189
1.62393
1.62416
1.62357
1.62397
1.62394
1.62239
1.61941
1.61808
1.61833
1.61935
1.62171
1.62394
1.62561
1.62675
1.62724
1.6275
1.62818
1.62943
1.63072
1.63209
1.63327
1.63404
1.63442
1.63454
1.63461
1.63482
1.63488
1.6347
1.63434
1.63354
1.63182
1.62899
1.62452
1.61812
1.61329
1.61161
1.61096
1.61071
1.61172
1
1
1
1
1
1
1
1
1
1
1
1
1
1
1
1
1
1
1
1
1
1
1
1
1
1
1
1
1
1
1
1
0.999993
1.00008
1.00367
1.02132
1.09731
1.24808
1.3762
1.47571
1.53049
1.57339
1.59976
1.61263
1.61739
1.62027
1.62148
1.62153
1.62133
1.62104
1.62037
1.62005
1.61978
1.61937
1.6193
1.61951
1.61949
1.61984
1.62155
1.62419
1.62653
1.62845
1.62966
1.62993
1.63014
1.63078
1.63187
1.63203
1.63175
1.63121
1.63051
1.62917
1.62704
1.62391
1.61865
1.61255
1.60925
1.60864
1.60863
1.60991
1
1
1
1
1
1
1
1
1
1
1
1
1
1
1
1
1
1
1
1
1
1
1
1
1
1
1
1
1
1
1
1
1
0.999999
1
1
1.00066
1.01059
1.04383
1.16071
1.31499
1.44438
1.51153
1.55164
1.58117
1.60424
1.6122
1.61548
1.61776
1.61901
1.62031
1.62128
1.62131
1.62032
1.6186
1.61709
1.61579
1.6155
1.61663
1.61967
1.6218
1.62295
1.62346
1.62356
1.62394
1.62514
1.62671
1.62695
1.62677
1.62593
1.62468
1.62386
1.62258
1.61986
1.61658
1.61413
1.61152
1.60853
1.60686
1.60779
1
1
1
1
1
1
1
1
1
1
1
1
1
1
1
1
1
1
1
1
1
1
1
1
1
1
1
1
1
1
1
1
1
1
1
1
1
0.999998
1.00008
1.00348
1.02585
1.09879
1.25653
1.40146
1.49696
1.53984
1.57028
1.5862
1.59784
1.60709
1.61451
1.61692
1.61752
1.61719
1.61671
1.61644
1.61653
1.61665
1.61775
1.61903
1.61932
1.61942
1.6193
1.61894
1.61908
1.62022
1.62157
1.62165
1.6213
1.62
1.61762
1.6152
1.61455
1.61368
1.61221
1.61101
1.61105
1.61064
1.60818
1.60598
1
1
1
1
1
1
1
1
1
1
1
1
1
1
1
1
1
1
1
1
1
1
1
1
1
1
1
1
1
1
1
1
1
1
1
1
1
1
1
0.999998
1.00003
1.0009
1.01632
1.06529
1.19403
1.35315
1.49902
1.54848
1.56781
1.58309
1.5927
1.59948
1.60356
1.60586
1.608
1.61092
1.61291
1.61445
1.61614
1.61773
1.61823
1.61826
1.61794
1.61694
1.61696
1.61792
1.61923
1.61957
1.61918
1.61734
1.61334
1.60948
1.60683
1.60571
1.60542
1.60688
1.60912
1.60904
1.60865
1.60597
1
1
1
1
1
1
1
1
1
1
1
1
1
1
1
1
1
1
1
1
1
1
1
1
1
1
1
1
1
1
1
1
1
1
1
1
1
1
1
1
1
0.999998
1.00001
1.00034
1.00742
1.04972
1.16377
1.32768
1.46948
1.56236
1.57988
1.58885
1.59481
1.59362
1.59547
1.59945
1.60387
1.60748
1.60986
1.61177
1.61302
1.6136
1.61366
1.61293
1.61306
1.61404
1.61598
1.6176
1.6184
1.61809
1.61564
1.60947
1.60234
1.59995
1.59983
1.60073
1.60453
1.6067
1.60682
1.6054
1
1
1
1
1
1
1
1
1
1
1
1
1
1
1
1
1
1
1
1
1
1
1
1
1
1
1
1
1
1
1
1
1
1
1
1
1
1
1
1
1
1
1
1
1
1.00024
1.00389
1.04613
1.14159
1.30663
1.44949
1.55896
1.59408
1.59547
1.60195
1.60226
1.60273
1.60484
1.60586
1.60564
1.60604
1.60686
1.60713
1.60742
1.60784
1.6084
1.61003
1.61276
1.61526
1.61591
1.61502
1.61239
1.60565
1.59681
1.59567
1.59611
1.59712
1.60128
1.60358
1.60269
1
1
1
1
1
1
1
1
1
1
1
1
1
1
1
1
1
1
1
1
1
1
1
1
1
1
1
1
1
1
1
1
1
1
1
1
1
1
1
1
1
1
1
1
1
1
0.999997
1.00026
1.00272
1.03367
1.13833
1.30336
1.44263
1.54745
1.59396
1.609
1.61124
1.61267
1.61207
1.60962
1.60821
1.60779
1.6065
1.60549
1.60553
1.60565
1.6053
1.60413
1.60494
1.60884
1.61307
1.613
1.60997
1.60226
1.5934
1.59084
1.591
1.59231
1.597
1.5989
1
1
1
1
1
1
1
1
1
1
1
1
1
1
1
1
1
1
1
1
1
1
1
1
1
1
1
1
1
1
1
1
1
1
1
1
1
1
1
1
1
1
1
1
1
1
1
1
0.999997
1.00018
1.00296
1.03096
1.15839
1.31747
1.45206
1.53541
1.59355
1.60966
1.60985
1.61042
1.61166
1.61154
1.61125
1.6118
1.61227
1.61118
1.60731
1.60271
1.60118
1.6014
1.60571
1.61034
1.60898
1.60552
1.59705
1.58847
1.58715
1.5872
1.5885
1.59318
1
1
1
1
1
1
1
1
1
1
1
1
1
1
1
1
1
1
1
1
1
1
1
1
1
1
1
1
1
1
1
1
1
1
1
1
1
1
1
1
1
1
1
1
1
1
1
1
1
1
0.999998
1.00017
1.005
1.03416
1.16736
1.34531
1.48936
1.54702
1.57324
1.59601
1.60066
1.60121
1.60491
1.6122
1.61601
1.61742
1.61736
1.61195
1.60154
1.59802
1.59742
1.60022
1.60568
1.60442
1.60134
1.5951
1.58676
1.58474
1.58493
1.58631
1
1
1
1
1
1
1
1
1
1
1
1
1
1
1
1
1
1
1
1
1
1
1
1
1
1
1
1
1
1
1
1
1
1
1
1
1
1
1
1
1
1
1
1
1
1
1
1
1
1
1
1
1
1.00021
1.00695
1.04957
1.19055
1.37922
1.52912
1.57776
1.58274
1.58202
1.58196
1.59102
1.61056
1.62128
1.62273
1.62079
1.61092
1.59697
1.59181
1.59168
1.59637
1.6036
1.60385
1.60172
1.59519
1.58656
1.58187
1.58145
1
1
1
1
1
1
1
1
1
1
1
1
1
1
1
1
1
1
1
1
1
1
1
1
1
1
1
1
1
1
1
1
1
1
1
1
1
1
1
1
1
1
1
1
1
1
1
1
1
1
1
1
1
1
1.00001
1.00045
1.01039
1.07584
1.24245
1.42063
1.56098
1.59214
1.58522
1.57991
1.59208
1.61242
1.62178
1.6218
1.61806
1.60554
1.59259
1.58943
1.5894
1.59496
1.60156
1.60133
1.59867
1.5931
1.58492
1.57962
1
1
1
1
1
1
1
1
1
1
1
1
1
1
1
1
1
1
1
1
1
1
1
1
1
1
1
1
1
1
1
1
1
1
1
1
1
1
1
1
1
1
1
1
1
1
1
1
1
1
1
1
1
1
1
0.999999
1.00003
1.00119
1.02056
1.11191
1.31047
1.49912
1.5835
1.58536
1.58463
1.59562
1.61443
1.62109
1.62067
1.61664
1.60578
1.59298
1.59017
1.58969
1.59022
1.59413
1.59608
1.59448
1.591
1.5852
1
1
1
1
1
1
1
1
1
1
1
1
1
1
1
1
1
1
1
1
1
1
1
1
1
1
1
1
1
1
1
1
1
1
1
1
1
1
1
1
1
1
1
1
1
1
1
1
1
1
1
1
1
1
1
1
1
0.999999
1.00011
1.00335
1.04433
1.18813
1.41027
1.55563
1.5721
1.57872
1.59245
1.61316
1.62092
1.62079
1.61745
1.60974
1.59706
1.58848
1.586
1.58461
1.58615
1.59023
1.59128
1.58899
1
1
1
1
1
1
1
1
1
1
1
1
1
1
1
1
1
1
1
1
1
1
1
1
1
1
1
1
1
1
1
1
1
1
1
1
1
1
1
1
1
1
1
1
1
1
1
1
1
1
1
1
1
1
1
1
1
1
1
1
1.00048
1.01159
1.09376
1.29392
1.48437
1.55579
1.57152
1.58488
1.60104
1.61572
1.61894
1.61693
1.61016
1.60029
1.5893
1.58356
1.58179
1.58148
1.58552
1.58801
1
1
1
1
1
1
1
1
1
1
1
1
1
1
1
1
1
1
1
1
1
1
1
1
1
1
1
1
1
1
1
1
1
1
1
1
1
1
1
1
1
1
1
1
1
1
1
1
1
1
1
1
1
1
1
1
1
1
1
1
0.999999
1.00005
1.00255
1.03425
1.17646
1.38877
1.54692
1.56964
1.57771
1.5889
1.604
1.61222
1.61271
1.60966
1.60354
1.59479
1.58365
1.5788
1.57813
1.57949
1
1
1
1
1
1
1
1
1
1
1
1
1
1
1
1
1
1
1
1
1
1
1
1
1
1
1
1
1
1
1
1
1
1
1
1
1
1
1
1
1
1
1
1
1
1
1
1
1
1
1
1
1
1
1
1
1
1
1
1
1
1
1
1.00039
1.01091
1.08962
1.29468
1.50234
1.57445
1.57824
1.58277
1.59138
1.60307
1.60809
1.60729
1.60316
1.59544
1.58334
1.57462
1.57367
1
1
1
1
1
1
1
1
1
1
1
1
1
1
1
1
1
1
1
1
1
1
1
1
1
1
1
1
1
1
1
1
1
1
1
1
1
1
1
1
1
1
1
1
1
1
1
1
1
1
1
1
1
1
1
1
1
1
1
1
1
1
1
1
1.00006
1.00298
1.04069
1.21483
1.43605
1.56631
1.58185
1.57982
1.58124
1.58917
1.59893
1.60112
1.59838
1.59282
1.58268
1.57274
1
1
1
1
1
1
1
1
1
1
1
1
1
1
1
1
1
1
1
1
1
1
1
1
1
1
1
1
1
1
1
1
1
1
1
1
1
1
1
1
1
1
1
1
1
1
1
1
1
1
1
1
1
1
1
1
1
1
1
1
1
1
1
1
1
1.00001
1.00072
1.01945
1.13252
1.36171
1.53356
1.59071
1.5855
1.57674
1.57741
1.58254
1.59099
1.59166
1.58903
1.58064
1
1
1
1
1
1
1
1
1
1
1
1
1
1
1
1
1
1
1
1
1
1
1
1
1
1
1
1
1
1
1
1
1
1
1
1
1
1
1
1
1
1
1
1
1
1
1
1
1
1
1
1
1
1
1
1
1
1
1
1
1
1
1
1
1
1
1
1.0002
1.00768
1.08206
1.29043
1.49428
1.58534
1.58867
1.57801
1.56907
1.57095
1.5814
1.58803
1.58502
1
1
1
1
1
1
1
1
1
1
1
1
1
1
1
1
1
1
1
1
1
1
1
1
1
1
1
1
1
1
1
1
1
1
1
1
1
1
1
1
1
1
1
1
1
1
1
1
1
1
1
1
1
1
1
1
1
1
1
1
1
1
1
1
1
1
1
1
1.00006
1.00279
1.05106
1.21698
1.44356
1.57365
1.5812
1.57461
1.56263
1.56587
1.57918
1.58471
1
1
1
1
1
1
1
1
1
1
1
1
1
1
1
1
1
1
1
1
1
1
1
1
1
1
1
1
1
1
1
1
1
1
1
1
1
1
1
1
1
1
1
1
1
1
1
1
1
1
1
1
1
1
1
1
1
1
1
1
1
1
1
1
1
1
1
1
1
1.00001
1.00113
1.0258
1.16491
1.37759
1.54301
1.57292
1.56836
1.55884
1.56401
1.57813
1
1
1
1
1
1
1
1
1
1
1
1
1
1
1
1
1
1
1
1
1
1
1
1
1
1
1
1
1
1
1
1
1
1
1
1
1
1
1
1
1
1
1
1
1
1
1
1
1
1
1
1
1
1
1
1
1
1
1
1
1
1
1
1
1
1
1
1
1
1
1
1.00045
1.01239
1.112
1.31681
1.50764
1.56554
1.56081
1.55368
1.56346
1
1
1
1
1
1
1
1
1
1
1
1
1
1
1
1
1
1
1
1
1
1
1
1
1
1
1
1
1
1
1
1
1
1
1
1
1
1
1
1
1
1
1
1
1
1
1
1
1
1
1
1
1
1
1
1
1
1
1
1
1
1
1
1
1
1
1
1
1
1
1
1
1.00014
1.00594
1.07241
1.26009
1.47446
1.55274
1.54998
1.55344
1
1
1
1
1
1
1
1
1
1
1
1
1
1
1
1
1
1
1
1
1
1
1
1
1
1
1
1
1
1
1
1
1
1
1
1
1
1
1
1
1
1
1
1
1
1
1
1
1
1
1
1
1
1
1
1
1
1
1
1
1
1
1
1
1
1
1
1
1
1
1
1
1
1.00005
1.00276
1.04548
1.20637
1.4217
1.53243
1.55726
1
1
1
1
1
1
1
1
1
1
1
1
1
1
1
1
1
1
1
1
1
1
1
1
1
1
1
1
1
1
1
1
1
1
1
1
1
1
1
1
1
1
1
1
1
1
1
1
1
1
1
1
1
1
1
1
1
1
1
1
1
1
1
1
1
1
1
1
1
1
1
1
1
1
1.00002
1.00127
1.02504
1.16188
1.36487
1.52538
1
1
1
1
1
1
1
1
1
1
1
1
1
1
1
1
1
1
1
1
1
1
1
1
1
1
1
1
1
1
1
1
1
1
1
1
1
1
1
1
1
1
1
1
1
1
1
1
1
1
1
1
1
1
1
1
1
1
1
1
1
1
1
1
1
1
1
1
1
1
1
1
1
1
1
1
1.00051
1.01504
1.10459
1.41278
1
1
1
1
1
1
1
1
1
1
1
1
1
1
1
1
1
1
1
1
1
1
1
1
1
1
1
1
1
1
1
1
1
1
1
1
1
1
1
1
1
1
1
1
1
1
1
1
1
1
1
1
1
1
1
1
1
1
1
1
1
1
1
1
1
1
1
1
1
1
1
1
1
1
1
1
1
1.00027
1.00582
1.20434
1
1
1
1
1
1
1
1
1
1
1
1
1
1
1
1
1
1
1
1
1
1
1
1
1
1
1
1
1
1
1
1
1
1
1
1
1
1
1
1
1
1
1
1
1
1
1
1
1
1
1
1
1
1
1
1
1
1
1
1
1
1
1
1
1
1
1
1
1
1
1
1
1
1
1
1
1
1
1.00012
1.04244
1
1
1
1
1
1
1
1
1
1
1
1
1
1
1
1
1
1
1
1
1
1
1
1
1
1
1
1
1
1
1
1
1
1
1
1
1
1
1
1
1
1
1
1
1
1
1
1
1
1
1
1
1
1
1
1
1
1
1
1
1
1
1
1
1
1
1
1
1
1
1
1
1
1
1
1
1
1
1
1.00386
)
;

boundaryField
{
    inlet
    {
        type            fixedValue;
        value           uniform 1;
    }
    outlet
    {
        type            zeroGradient;
    }
    bottom
    {
        type            symmetryPlane;
    }
    top
    {
        type            symmetryPlane;
    }
    obstacle
    {
        type            zeroGradient;
    }
    defaultFaces
    {
        type            empty;
    }
}


// ************************************************************************* //
