/*--------------------------------*- C++ -*----------------------------------*\
| =========                 |                                                 |
| \\      /  F ield         | OpenFOAM: The Open Source CFD Toolbox           |
|  \\    /   O peration     | Version:  2206                                  |
|   \\  /    A nd           | Website:  www.openfoam.com                      |
|    \\/     M anipulation  |                                                 |
\*---------------------------------------------------------------------------*/
FoamFile
{
    version     2.0;
    format      ascii;
    arch        "LSB;label=32;scalar=64";
    class       volScalarField;
    location    "0.08";
    object      p;
}
// * * * * * * * * * * * * * * * * * * * * * * * * * * * * * * * * * * * * * //

dimensions      [1 -1 -2 0 0 0 0];

internalField   nonuniform List<scalar> 
4800
(
1
1
1
1
1
1
1
1
1
1
1
1
1
1
1
1
1
1
1
1
1
1
1
1
1
1
1
1
1
1
1
1
1
1
1
1
1
1
1
1
1
1
1
1
1
1
1
1
1
1
1
1
1
1
1
1
1
1
1
1
1
1
1
1
1
1
1
1
1
1
1
1
1
1
1
1
1
1
1
1
1
1
1
1
1
1
1
1
1
1
1
1
1
1
1
1
1
1
1
1
1
1
1
1
1
1
1
1
1
1
1
1
1
1
1
1
1
1
1
1
1
1
1
1
1
1
1
1
1
1
1
1
1
1
1
1
1
1
1
1
1
1
1
1
1
1
1
1
1
1
1
1
1
1
1
1
1
1
1
1
1
1
1
1
1
1
1
1
1
1
1
1
1
1
1
1
1
1
1
1
1
1
1
1
1
1
1
1
1
1
1
1
1
1
1
1
1
1
1
1
1
1
1
1
1
1
1
1
1
1
1
1
1
1
1
1
1
1
1
1
1
1
1
1
1
1
1
1
1
1
1
1
1
1
1
1
1
1
1
1
1
1
1
1
1
1
1
1
1
1
1
1
1
1
1
1
1
1
1
1
1
1
1
1
1
1
1
1
1
1
1
1
1
1
1
1
1
1
1
1
1
1
1
1
1
1
1
1
1
1
1
1
1
1
1
1
1
1
1
1
1
1
1
1
1
1
1
1
1
1
1
1
1
1
1
1
1
1
1
1
1
1
1
1
1
1
1
1
1
1
1
1
1
1
1
1
1
1
1
1
1
1
1
1
1
1
1
1
1
1
1
1
1
1
1
1
1
1
1
1
1
1
1
1
1
1
1
1
1
1
1
1
1
1
1
1
1
1
1
1
1
1
1
1
1
1
1
1
1
1
1
1
1
1
1
1
1
1
1
1
1
1
1
1
1
1
1
1
1
1
1
1
1
1
1
1
1
1
1
1
1
1
1
1
1
1
1
1
1
1
1
1
1
1
1
1
1
1
1
1
1
1
1
1
1
1
1
1
1
1
1
1
1
1
1
1
1
1
1
1
1
1
1
1
1
1
1
1
1
1
1
1
1
1
1
1
1
1
1
1
1
1
1
1
1
1
1
1
1
1
1
1
1
1
1
1
1
1
1
1
1
1
1
1
1
1
1
1
1
1
1
1
1
1
1
1
1
1
1
1
1
1
1
1
1
1
1
1
1
1
1
1
1
1
1
1
1
1
1
1
1
1
1
1
1
1
1
1
1
1
1
1
1
1
1
1
1
1
1
1
1
1
1
1
1
1
1
1
1
1
1
1
1
1
1
1
1
1
1
1
1
1
1
1
1
1
1
1
1
1
1
1
1
1
1
1
1
1
1
1
1
1
1
1
1
1
1
1
1
1
1
1
1
1
1
1
1
1
1
1
1
1
1
1
1
1
1
1
1
1
1
1
1
1
1
1
1
1
1
1
1
1
1
1
1
1
1
1
1
1
1
1
1
1
1
1
1
1
1
1
1
1
1
1
1
1
1
1
1
1
1
1
1
1
1
1
1
1
1
1
1
1
1
1
1
1
1
1
1
1
1
1
1
1
1
1
1
1
1
1
1
1
1
1
1
1
1
1
1
1
1
1
1
1
1
1
1
1
1
1
1
1
1
1
1
1
1
1
1
1
1
1
1
1
1
1
1
1
1
1
1
1
1
1
1
1
1
1
1
1
1
1
1
1
1
1
1
1
1
1
1
1
1
1
1
1
1
1
1
1
1
1
1
1
1
1
1
1
1
1
1
1
1
1
1
1
1
1
1
1
1
1
1
1
1
1
1
1
1
1
1
1
1
1
1
1
1
1
1
1
1
1
1
1
1
1
1
1
1
1
1
1
1
1
1
1
1
1
1
1
1
1
1
1
1
1
1
1
1
1
1
1
1
1
1
1
1
1
1
1
1
1
1
1
1
1
1
1
1
1
1
1
1
1
1
1
1
1
1
1
1
1
1
1
1
1
1
1
1
1
1
1
1
1
1
1
1
1
1
1
1
1
1
1
1
1
1
1
1
1
1
1
1
1
1
1
1
1
1
1
1
1
1
1
1
1
1
1
1
1
1
1
1
1
1
1
1
1
1
1
1
1
1
1
1
1
1
1
1
1
1
1
1
1
1
1
1
1
1
1
1
1
1
1
1
1
1
1
1
1
1
1
1
1
1
1
1
1
1
1
1
1
1
1
1
1
1
1
1
1
1
1
1
1
1
1
1
1
1
1
1
1
1
1
1
1
1
1
1
1
1
1
1
1
1
1
1
1
1
1
1
1
1
1
1
1
1
1
1
1
1
1
1
1
1
1
1
1
1
1
1
1
1
1
1
1
1
1
1
1
1
1
1
1
1
1
1
1
1
1
1
1
1
1
1
1
1
1
1
1
1
1
1
1
1
1
1
1
1
1
1
1
1
1
1
1
1
1
1
1
1
1
1
1
1
1
1
1
1
1
1
1
1
1
1
1
1
1
1
1
1
1
1
1
1
1
1
1
1
1
1
1
1
1
1
1
1
1
1
1
1
1
1
1
1
1
1
1
1
1
1
1
1
1
1
1
1
1
1
1
1
1
1
1
1
1
1
1
1
1
1
1
1
1
1
1
1
1
1
1
1
1
1
1
1
1
1
1
1
1
1
1
1
1
1
1
1
1
1
1
1
1
1
1
1
1
1
1
1
1
1
1
1
1
1
1
1
1
1
1
1
1
1
1
1
1
1
1
1
1
1
1
1
1
1
1
1
1
1
1
1
1
1
1
1
1
1
1
1
1
1
1
1
1
1
1
1
1
1
1
1
1
1
1
1
1
1
1
1
1
1
1
1
1
1
1
1
1
1
1
1
1
1
1
1
1
1
1
1
1
1
1
1
1
1
1
1
1
1
1
1
1
1
1
1
1
1
1
1
1
1
1
1
1
1
1
1
1
1
1
1
1
1
1
1
1
1
1
1
1
1
1
1
1
1
1
1
1
1
1
1
1
1
1
1
1
1
1
1
1
1
1
1
1
1
1
1
1
1
1
1
1
1
1
1
1
1
1
1
1
1
1
1
1
1
1
1
1
1
1
1
1
1
1
1
1
1
1
1
1
1
1
1
1
1
1
1
1
1
1
1
1
1
1
1
1
1
1
1
1
1
1
1
1
1
1
1
1
1
1
1
1
1
1
1
1
1
1
1
1
1
1
1
1
1
1
1
1
1
1
1
1
1
1
1
1
1
1
1
1
1
1
1
1
1
1
1
1
1
1
1
1
1
1
1
1
1
1
1
1
1
1
1
1
1
1
1
1
1
1
1
1
1
1
1
1
1
1
1
1
1
1
1
1
1
1
1
1
1
1
1
1
1
1
1
1
1
1
1
1
1
1
1
1
1
1
1
1
1
1
1
1
1
1
1
1
1
1
1
1
1
1
1
1
1
1
1
1
1
1
1
1
1
1
1
1
1
1
1
1
1
1
1
1
1
1
1
1
1
1
1
1
1
1
1
1
1
1
1
1
1
1
1
1
1
1
1
1
1
1
1
1
1
1
1
1
1
1
1
1
1
1
1
1
1
1
1
1
1
1
1
1
1
1
1
1
1
1
1
1
1
1
1
1
1
1
1
1
1
1
1.26103
1.67631
2.16843
2.75318
3.43712
3.97512
4.45641
5.1663
6.06377
6.29673
6.4857
6.91522
7.23967
7.23384
7.03867
6.71248
6.41303
6.01871
5.45559
4.98839
4.84342
4.72229
4.53126
4.48082
4.50151
4.56443
4.65769
4.71357
4.7629
4.8304
4.88114
4.88546
4.87124
4.86849
4.88359
4.89332
4.89816
4.89274
4.88167
4.8781
4.89519
4.93057
4.96482
4.97795
4.97229
4.9577
4.93805
4.90423
4.87394
4.86484
4.86322
4.87273
4.91196
4.95799
4.9805
4.98772
4.98675
4.97757
4.96522
4.95037
4.93345
4.91589
4.89484
4.87806
4.87557
4.88534
4.91164
4.95595
4.99342
5.01228
5.01351
5.00011
4.96366
4.91326
4.83686
4.73488
4.70033
4.69702
4.69599
4.71321
1
0.999911
1.00155
1.00087
1.03725
1.19655
1.3833
1.53881
1.85235
2.3718
2.7712
3.20354
3.75291
4.24863
4.51476
4.76112
5.06592
5.12793
5.22624
5.23452
5.2843
5.3212
5.27228
5.09606
4.98445
4.90984
4.87702
4.79878
4.74372
4.74639
4.77813
4.80971
4.81898
4.83287
4.86305
4.89092
4.90133
4.90149
4.89459
4.87832
4.87744
4.88492
4.8981
4.92182
4.94378
4.94732
4.94262
4.93284
4.93038
4.92829
4.91792
4.91007
4.9082
4.90835
4.9115
4.91812
4.92696
4.9416
4.95703
4.96405
4.96643
4.96586
4.95893
4.94571
4.93205
4.92769
4.92934
4.92792
4.92553
4.92987
4.93874
4.94052
4.92838
4.89415
4.83951
4.78348
4.74021
4.72896
4.72822
4.73059
1
1
1
1
1
0.999998
1
1
0.998801
1.00887
1.04509
1.14221
1.35401
1.74256
2.30839
3.06422
4.0626
4.93787
5.31443
5.75542
5.76526
5.74316
5.70681
5.58596
5.41765
5.2422
5.01318
4.80696
4.71467
4.72769
4.77354
4.79089
4.80203
4.81971
4.85575
4.90126
4.92113
4.9211
4.91547
4.90286
4.8811
4.87738
4.87854
4.87915
4.89231
4.92223
4.94497
4.95838
4.96276
4.95971
4.954
4.94615
4.93326
4.91391
4.8939
4.87912
4.87314
4.87951
4.91638
4.96709
4.98927
4.99323
4.99337
4.99137
4.98788
4.97706
4.95906
4.93582
4.91149
4.89268
4.88018
4.87434
4.88006
4.87282
4.84846
4.80972
4.7662
4.74709
4.74461
4.74323
1
1
1
1
1
1
1
1
1
1
1
1
1
0.998935
1.00767
1.08135
1.29517
1.92524
2.69464
3.61818
4.32176
4.72848
5.16461
5.17614
5.16644
5.19726
5.22138
5.17126
5.05588
5.01665
4.99135
4.93537
4.86463
4.80684
4.78855
4.8003
4.83731
4.86554
4.88552
4.89226
4.89225
4.89469
4.8902
4.87845
4.87014
4.87606
4.89852
4.92779
4.96034
4.98478
4.98911
4.97967
4.95773
4.9206
4.89344
4.87772
4.86438
4.86268
4.87705
4.9126
4.95372
4.98527
5.00622
5.01699
5.01552
5.00379
4.97923
4.93813
4.90222
4.88127
4.86899
4.86129
4.85568
4.84662
4.82035
4.79401
4.77596
4.7632
4.75922
4.75362
1
1
1
1
1
1
1
1
1
1
1
1
1
1
1
1
0.999663
1.00026
1.03743
1.16606
1.63778
2.31008
3.1219
3.8891
4.44591
5.13585
5.31048
5.36311
5.38166
5.34519
5.27081
5.14034
4.91947
4.76401
4.74717
4.77168
4.82761
4.85876
4.87226
4.88111
4.88624
4.88271
4.8874
4.88907
4.87696
4.87143
4.88
4.89287
4.91014
4.93844
4.96248
4.96613
4.96173
4.95318
4.94492
4.93085
4.90905
4.89387
4.89771
4.90816
4.91467
4.92222
4.93684
4.96027
4.98305
4.98993
4.97958
4.95825
4.94374
4.92753
4.90679
4.8876
4.87164
4.84902
4.80984
4.76977
4.74847
4.739
4.73485
4.73084
1
1
1
1
1
1
1
1
1
1
1
1
1
1
1
1
1
1
1
1
0.998978
1.01255
1.08426
1.43369
1.97915
2.71304
3.52712
4.14122
4.82865
5.00509
5.01278
5.01251
4.98452
4.90822
4.88508
4.89739
4.93388
4.93159
4.92985
4.91197
4.8905
4.88154
4.88139
4.87851
4.87008
4.86798
4.88387
4.88619
4.88479
4.88567
4.89526
4.91949
4.95574
4.97842
4.98337
4.98349
4.98052
4.96527
4.93833
4.92744
4.91526
4.8979
4.89169
4.89436
4.90649
4.93117
4.95812
4.9741
4.9772
4.97091
4.95555
4.93347
4.90345
4.8692
4.8226
4.76751
4.73149
4.71545
4.70462
4.69932
1
1
1
1
1
1
1
1
1
1
1
1
1
1
1
1
1
1
1
1
1
0.999999
1
0.999331
1.00315
1.04517
1.31067
1.74973
2.44334
3.24212
3.91642
4.72196
4.91643
5.03086
5.09514
5.07724
5.04078
4.98506
4.89312
4.80411
4.80272
4.83473
4.87761
4.90768
4.92429
4.92173
4.8908
4.85639
4.83893
4.83999
4.84313
4.85784
4.89905
4.95248
4.99072
5.0018
5.00089
4.99852
4.9946
4.95995
4.92194
4.8953
4.87902
4.87724
4.88101
4.88923
4.91284
4.94668
4.97411
4.98396
4.97768
4.95645
4.92518
4.88265
4.82127
4.75089
4.71598
4.70051
4.68963
4.68292
1
1
1
1
1
1
1
1
1
1
1
1
1
1
1
1
1
1
1
1
1
1
1
1
1
1
0.99994
1.00042
1.02554
1.22674
1.57122
2.18907
3.02681
3.77547
4.59045
4.71028
4.79525
4.80646
4.75138
4.75984
4.80831
4.87495
4.92187
4.96447
4.97924
4.97157
4.95886
4.93224
4.8726
4.83341
4.83164
4.8385
4.85915
4.88288
4.91525
4.95607
4.9816
4.99416
4.99973
5.00232
4.99591
4.9752
4.93997
4.90581
4.89657
4.8999
4.90607
4.91355
4.92614
4.9427
4.94659
4.93649
4.90931
4.86445
4.81028
4.77171
4.75076
4.73321
4.71459
4.69633
1
1
1
1
1
1
1
1
1
1
1
1
1
1
1
1
1
1
1
1
1
1
1
1
1
1
1
1
1
0.999994
0.999613
1.01592
1.18481
1.5042
2.13547
2.91467
3.68974
4.48311
4.65653
4.81662
4.88124
4.89387
4.91522
4.95353
4.98356
4.98447
4.97406
4.94902
4.92592
4.91213
4.90992
4.902
4.87801
4.86481
4.86962
4.86954
4.87307
4.8951
4.94192
4.98996
5.00351
5.00324
5.00712
5.00065
4.97696
4.94264
4.91212
4.90046
4.89751
4.89808
4.89536
4.88339
4.85688
4.82635
4.79301
4.77626
4.76884
4.76555
4.76006
4.73973
1
1
1
1
1
1
1
1
1
1
1
1
1
1
1
1
1
1
1
1
1
1
1
1
1
1
1
1
1
1
1
1
0.999995
0.999717
1.01695
1.16727
1.4202
2.00502
2.83671
3.78322
4.41381
4.47864
4.6157
4.71249
4.76162
4.80266
4.8618
4.92793
4.96428
4.98461
4.99106
4.99277
4.98829
4.94719
4.86843
4.82641
4.82175
4.83429
4.86441
4.89966
4.95177
4.99485
5.01165
5.01767
5.017
5.00723
4.98441
4.95235
4.91535
4.89073
4.87844
4.86241
4.8296
4.77945
4.75381
4.7474
4.75627
4.76914
4.77559
4.76889
1
1
1
1
1
1
1
1
1
1
1
1
1
1
1
1
1
1
1
1
1
1
1
1
1
1
1
1
1
1
1
1
1
1
1
0.999993
0.999731
1.01587
1.148
1.44569
2.12049
2.91279
3.85111
4.42154
4.55447
4.63627
4.6661
4.73555
4.87823
5.00093
5.02098
5.02826
5.0265
5.01398
4.97991
4.92891
4.87477
4.84547
4.84894
4.87084
4.8843
4.89569
4.92013
4.95856
4.99362
5.00561
5.00504
4.99658
4.97761
4.94697
4.91627
4.87886
4.82852
4.76449
4.72173
4.71263
4.71542
4.73941
4.77038
4.76818
1
1
1
1
1
1
1
1
1
1
1
1
1
1
1
1
1
1
1
1
1
1
1
1
1
1
1
1
1
1
1
1
1
1
1
1
0.999998
1
0.999895
1.00024
1.03175
1.175
1.48537
2.17802
3.11489
4.15651
4.34263
4.45216
4.61156
4.76774
4.80405
4.84917
4.92896
4.99591
4.99803
4.9793
4.97206
4.97554
4.96297
4.92348
4.88339
4.86607
4.86637
4.88067
4.9016
4.93076
4.95795
4.97241
4.97384
4.97161
4.96663
4.94638
4.89676
4.7995
4.71608
4.6991
4.69421
4.69479
4.71
4.74579
1
1
1
1
1
1
1
1
1
1
1
1
1
1
1
1
1
1
1
1
1
1
1
1
1
1
1
1
1
1
1
1
1
1
1
1
1
1
0.999999
0.999998
1.00001
0.999912
1.00112
1.0465
1.21702
1.72121
2.49945
3.3571
4.24823
4.52008
4.57695
4.59604
4.63402
4.77164
4.95144
5.00055
5.01854
5.03422
5.05683
5.05706
5.01689
4.94805
4.88461
4.86609
4.87287
4.87851
4.8853
4.89694
4.92529
4.9629
4.97139
4.96335
4.94447
4.90186
4.79946
4.69958
4.67154
4.66924
4.67255
4.70632
1
1
1
1
1
1
1
1
1
1
1
1
1
1
1
1
1
1
1
1
1
1
1
1
1
1
1
1
1
1
1
1
1
1
1
1
1
1
1
1
1
0.999999
0.999994
1.00005
1.00003
1.00809
1.10337
1.31376
1.91088
2.84635
4.07369
4.43288
4.45687
4.56839
4.72608
4.75913
4.80239
4.89881
5.01433
5.04647
5.02576
5.00078
4.98137
4.95664
4.92446
4.88988
4.8738
4.87519
4.88293
4.87591
4.88456
4.91034
4.92609
4.90349
4.84923
4.7703
4.6887
4.65627
4.65755
4.67944
1
1
1
1
1
1
1
1
1
1
1
1
1
1
1
1
1
1
1
1
1
1
1
1
1
1
1
1
1
1
1
1
1
1
1
1
1
1
1
1
1
1
1
1
1
1
1.00001
1.00058
1.02577
1.17131
1.68064
2.48225
3.33254
4.2126
4.60602
4.61222
4.60753
4.62638
4.77016
4.93562
4.9837
5.00018
5.00955
5.01028
5.0263
5.02321
4.98925
4.95212
4.9036
4.85356
4.81211
4.80361
4.82025
4.86038
4.85253
4.8198
4.76646
4.69113
4.65595
4.66572
1
1
1
1
1
1
1
1
1
1
1
1
1
1
1
1
1
1
1
1
1
1
1
1
1
1
1
1
1
1
1
1
1
1
1
1
1
1
1
1
1
1
1
1
1
1
0.999999
0.999998
0.999981
1.00015
1.00886
1.11205
1.34298
1.9544
2.98376
4.2879
4.58133
4.58305
4.70439
4.79065
4.77978
4.76345
4.80771
4.88385
4.98254
5.0318
5.04257
5.0465
5.02991
4.94069
4.81159
4.78078
4.77597
4.78045
4.81849
4.81103
4.78449
4.74236
4.68704
4.67408
1
1
1
1
1
1
1
1
1
1
1
1
1
1
1
1
1
1
1
1
1
1
1
1
1
1
1
1
1
1
1
1
1
1
1
1
1
1
1
1
1
1
1
1
1
1
1
1
0.999999
0.999999
0.999996
1.0001
1.00153
1.03636
1.22957
1.96967
2.93547
3.80368
4.51744
4.82124
4.80786
4.70234
4.67041
4.68624
4.77014
4.92032
5.04365
5.08608
5.09333
5.06727
4.94944
4.79707
4.74653
4.73692
4.74157
4.77586
4.77619
4.76212
4.72648
4.69548
1
1
1
1
1
1
1
1
1
1
1
1
1
1
1
1
1
1
1
1
1
1
1
1
1
1
1
1
1
1
1
1
1
1
1
1
1
1
1
1
1
1
1
1
1
1
1
1
1
1
1
0.999999
1
0.999976
1.00094
1.03299
1.26649
1.67865
2.52119
3.65002
4.62355
4.76596
4.7934
4.81337
4.74874
4.72915
4.77468
4.92525
5.06511
5.07443
5.02809
4.89435
4.77227
4.73832
4.73028
4.75109
4.77909
4.77086
4.73643
4.70339
1
1
1
1
1
1
1
1
1
1
1
1
1
1
1
1
1
1
1
1
1
1
1
1
1
1
1
1
1
1
1
1
1
1
1
1
1
1
1
1
1
1
1
1
1
1
1
1
1
1
1
1
1
0.999998
0.999999
0.999982
1.00127
1.01323
1.13554
1.55353
2.65728
3.72511
4.50951
4.87248
4.89755
4.8058
4.68613
4.73559
4.90484
5.02281
5.00754
4.93293
4.81176
4.74617
4.73575
4.74619
4.76616
4.75632
4.7234
4.69408
1
1
1
1
1
1
1
1
1
1
1
1
1
1
1
1
1
1
1
1
1
1
1
1
1
1
1
1
1
1
1
1
1
1
1
1
1
1
1
1
1
1
1
1
1
1
1
1
1
1
1
1
1
1
1
0.999999
0.999999
0.999981
1.00035
1.0114
1.2071
1.79509
2.6346
3.70934
4.77475
4.86498
4.76812
4.78501
4.84889
4.93652
4.94968
4.92417
4.84035
4.76086
4.74939
4.7542
4.76615
4.75077
4.71608
4.67804
1
1
1
1
1
1
1
1
1
1
1
1
1
1
1
1
1
1
1
1
1
1
1
1
1
1
1
1
1
1
1
1
1
1
1
1
1
1
1
1
1
1
1
1
1
1
1
1
1
1
1
1
1
1
1
1
1
0.999997
0.999998
0.999983
1.00136
1.02371
1.20271
1.69772
2.91564
4.00021
4.54491
4.84699
4.91306
4.91302
4.91291
4.9057
4.83519
4.75508
4.74666
4.75186
4.7878
4.79082
4.75307
4.67117
1
1
1
1
1
1
1
1
1
1
1
1
1
1
1
1
1
1
1
1
1
1
1
1
1
1
1
1
1
1
1
1
1
1
1
1
1
1
1
1
1
1
1
1
1
1
1
1
1
1
1
1
1
1
1
1
1
1
1
0.999997
0.999999
0.99999
1.00121
1.02376
1.21916
2.06996
3.26146
4.12439
4.49766
4.84958
4.9364
4.9278
4.85209
4.72297
4.68938
4.69725
4.76437
4.82816
4.8226
4.73465
1
1
1
1
1
1
1
1
1
1
1
1
1
1
1
1
1
1
1
1
1
1
1
1
1
1
1
1
1
1
1
1
1
1
1
1
1
1
1
1
1
1
1
1
1
1
1
1
1
1
1
1
1
1
1
1
1
1
1
1
1
0.999999
0.999998
0.999999
1.00206
1.06932
1.40607
2.19876
3.29629
4.37425
4.91294
4.93089
4.86678
4.7173
4.597
4.57948
4.62413
4.77323
4.8278
4.78635
1
1
1
1
1
1
1
1
1
1
1
1
1
1
1
1
1
1
1
1
1
1
1
1
1
1
1
1
1
1
1
1
1
1
1
1
1
1
1
1
1
1
1
1
1
1
1
1
1
1
1
1
1
1
1
1
1
1
1
1
1
1
1
1
0.999995
1.00025
1.00662
1.08669
1.54012
2.57505
3.78359
4.6796
4.87886
4.86601
4.7701
4.56855
4.53541
4.58048
4.73579
4.79032
1
1
1
1
1
1
1
1
1
1
1
1
1
1
1
1
1
1
1
1
1
1
1
1
1
1
1
1
1
1
1
1
1
1
1
1
1
1
1
1
1
1
1
1
1
1
1
1
1
1
1
1
1
1
1
1
1
1
1
1
1
1
1
1
0.999999
0.999999
0.999992
1.00049
1.01451
1.22714
1.98329
3.12341
4.2064
4.79318
4.80115
4.76984
4.57482
4.50003
4.53964
4.68942
1
1
1
1
1
1
1
1
1
1
1
1
1
1
1
1
1
1
1
1
1
1
1
1
1
1
1
1
1
1
1
1
1
1
1
1
1
1
1
1
1
1
1
1
1
1
1
1
1
1
1
1
1
1
1
1
1
1
1
1
1
1
1
1
1
1
0.999999
0.999998
1.00001
1.00346
1.0661
1.49154
2.45335
3.5648
4.52134
4.71562
4.71337
4.62456
4.49422
4.52646
1
1
1
1
1
1
1
1
1
1
1
1
1
1
1
1
1
1
1
1
1
1
1
1
1
1
1
1
1
1
1
1
1
1
1
1
1
1
1
1
1
1
1
1
1
1
1
1
1
1
1
1
1
1
1
1
1
1
1
1
1
1
1
1
1
1
1
1
1
0.999996
1.00041
1.01341
1.1838
1.82135
2.91216
3.9273
4.62514
4.67949
4.65266
4.51081
1
1
1
1
1
1
1
1
1
1
1
1
1
1
1
1
1
1
1
1
1
1
1
1
1
1
1
1
1
1
1
1
1
1
1
1
1
1
1
1
1
1
1
1
1
1
1
1
1
1
1
1
1
1
1
1
1
1
1
1
1
1
1
1
1
1
1
1
1
0.999999
0.999999
1.00001
1.00244
1.04514
1.39745
2.25707
3.35855
4.40094
4.60659
4.58147
1
1
1
1
1
1
1
1
1
1
1
1
1
1
1
1
1
1
1
1
1
1
1
1
1
1
1
1
1
1
1
1
1
1
1
1
1
1
1
1
1
1
1
1
1
1
1
1
1
1
1
1
1
1
1
1
1
1
1
1
1
1
1
1
1
1
1
1
1
1
1
1
0.999997
1.00024
1.0099
1.14998
1.72889
2.77975
3.85161
4.48413
1
1
1
1
1
1
1
1
1
1
1
1
1
1
1
1
1
1
1
1
1
1
1
1
1
1
1
1
1
1
1
1
1
1
1
1
1
1
1
1
1
1
1
1
1
1
1
1
1
1
1
1
1
1
1
1
1
1
1
1
1
1
1
1
1
1
1
1
1
1
1
1
0.999999
0.999999
1.00001
1.00223
1.0378
1.33631
2.11888
3.62263
1
1
1
1
1
1
1
1
1
1
1
1
1
1
1
1
1
1
1
1
1
1
1
1
1
1
1
1
1
1
1
1
1
1
1
1
1
1
1
1
1
1
1
1
1
1
1
1
1
1
1
1
1
1
1
1
1
1
1
1
1
1
1
1
1
1
1
1
1
1
1
1
1
1
1
0.999998
1.00015
1.00966
1.09711
2.15462
1
1
1
1
1
1
1
1
1
1
1
1
1
1
1
1
1
1
1
1
1
1
1
1
1
1
1
1
1
1
1
1
1
1
1
1
1
1
1
1
1
1
1
1
1
1
1
1
1
1
1
1
1
1
1
1
1
1
1
1
1
1
1
1
1
1
1
1
1
1
1
1
1
1
1
1
0.999999
1.00001
1.00123
1.20043
1
1
1
1
1
1
1
1
1
1
1
1
1
1
1
1
1
1
1
1
1
1
1
1
1
1
1
1
1
1
1
1
1
1
1
1
1
1
1
1
1
1
1
1
1
1
1
1
1
1
1
1
1
1
1
1
1
1
1
1
1
1
1
1
1
1
1
1
1
1
1
1
1
1
1
1
1
1
1
1.00996
1
1
1
1
1
1
1
1
1
1
1
1
1
1
1
1
1
1
1
1
1
1
1
1
1
1
1
1
1
1
1
1
1
1
1
1
1
1
1
1
1
1
1
1
1
1
1
1
1
1
1
1
1
1
1
1
1
1
1
1
1
1
1
1
1
1
1
1
1
1
1
1
1
1
1
1
1
1
1
1.00013
1
1
1
1
1
1
1
1
1
1
1
1
1
1
1
1
1
1
1
1
1
1
1
1
1
1
1
1
1
1
1
1
1
1
1
1
1
1
1
1
1
1
1
1
1
1
1
1
1
1
1
1
1
1
1
1
1
1
1
1
1
1
1
1
1
1
1
1
1
1
1
1
1
1
1
1
1
1
1
1
1
1
1
1
1
1
1
1
1
1
1
1
1
1
1
1
1
1
1
1
1
1
1
1
1
1
1
1
1
1
1
1
1
1
1
1
1
1
1
1
1
1
1
1
1
1
1
1
1
1
1
1
1
1
1
1
1
1
1
1
1
1
1
1
1
1
1
1
1
1
1
1
1
1
1
1
1
1
1
1
1
1
1
1
1
1
1
1
1
1
1
1
1
1
1
1
1
1
1
1
1
1
1
1
1
1
1
1
1
1
1
1
1
1
1
1
1
1
1
1
1
1
1
1
1
1
1
1
1
1
1
1
1
1
1
1
1
1
1
1
1
1
1
1
1
1
1
1
1
1
1
1
1
1
1
1
1
1
1
1
1
1
1
1
1
1
1
1
1
1
1
1
1
1
1
1
1
1
1
1
1
1
1
1
1
1
1
1
1
1
1
1
1
1
1
1
1
1
1
1
1
1
1
1
1
1
1
1
1
1
1
1
1
1
1
1
1
1
1
1
1
1
1
1
1
1
1
1
1
1
1
1
1
1
1
1
1
1
1
1
1
1
1
1
1
1
1
1
1
1
1
1
1
1
1
1
1
1
1
1
1
1
1
1
1
1
1
1
1
1
1
1
1
1
1
1
1
1
1
1
1
1
1
1
1
1
1
1
1
1
1
1
1
1
1
1
1
1
1
1
1
1
1
1
1
1
1
1
1
1
1
1
1
1
1
1
1
1
1
1
1
1
1
1
1
1
1
1
1
1
1
1
1
1
1
1
1
1
1
1
1
1
1
1
1
1
1
1
1
1
1
1
1
1
1
1
1
1
1
1
1
1
1
1
1
1
1
1
1
1
1
1
1
1
1
1
1
1
1
1
1
1
1
1
1
1
1
1
1
1
1
1
1
1
1
1
1
1
1
1
)
;

boundaryField
{
    inlet
    {
        type            fixedValue;
        value           uniform 1;
    }
    outlet
    {
        type            zeroGradient;
    }
    bottom
    {
        type            symmetryPlane;
    }
    top
    {
        type            symmetryPlane;
    }
    obstacle
    {
        type            zeroGradient;
    }
    defaultFaces
    {
        type            empty;
    }
}


// ************************************************************************* //
