/*--------------------------------*- C++ -*----------------------------------*\
| =========                 |                                                 |
| \\      /  F ield         | OpenFOAM: The Open Source CFD Toolbox           |
|  \\    /   O peration     | Version:  2206                                  |
|   \\  /    A nd           | Website:  www.openfoam.com                      |
|    \\/     M anipulation  |                                                 |
\*---------------------------------------------------------------------------*/
FoamFile
{
    version     2.0;
    format      ascii;
    arch        "LSB;label=32;scalar=64";
    class       volScalarField;
    location    "0.08";
    object      p;
}
// * * * * * * * * * * * * * * * * * * * * * * * * * * * * * * * * * * * * * //

dimensions      [1 -1 -2 0 0 0 0];

internalField   nonuniform List<scalar> 
4800
(
1
1
1
1
1
1
1
1
1
1
1
1
1
1
1
1
1
1
1
1
1
1
1
1
1
1
1
1
1
1
1
1
1
1
1
1
1
1
1
1
1
1
1
1
1
1
1
1
1
1
1
1
1
1
1
1
1
1
1
1
1
1
1
1
1
1
1
1
1
1
1
1
1
1
1
1
1
1
1
1
1
1
1
1
1
1
1
1
1
1
1
1
1
1
1
1
1
1
1
1
1
1
1
1
1
1
1
1
1
1
1
1
1
1
1
1
1
1
1
1
1
1
1
1
1
1
1
1
1
1
1
1
1
1
1
1
1
1
1
1
1
1
1
1
1
1
1
1
1
1
1
1
1
1
1
1
1
1
1
1
1
1
1
1
1
1
1
1
1
1
1
1
1
1
1
1
1
1
1
1
1
1
1
1
1
1
1
1
1
1
1
1
1
1
1
1
1
1
1
1
1
1
1
1
1
1
1
1
1
1
1
1
1
1
1
1
1
1
1
1
1
1
1
1
1
1
1
1
1
1
1
1
1
1
1
1
1
1
1
1
1
1
1
1
1
1
1
1
1
1
1
1
1
1
1
1
1
1
1
1
1
1
1
1
1
1
1
1
1
1
1
1
1
1
1
1
1
1
1
1
1
1
1
1
1
1
1
1
1
1
1
1
1
1
1
1
1
1
1
1
1
1
1
1
1
1
1
1
1
1
1
1
1
1
1
1
1
1
1
1
1
1
1
1
1
1
1
1
1
1
1
1
1
1
1
1
1
1
1
1
1
1
1
1
1
1
1
1
1
1
1
1
1
1
1
1
1
1
1
1
1
1
1
1
1
1
1
1
1
1
1
1
1
1
1
1
1
1
1
1
1
1
1
1
1
1
1
1
1
1
1
1
1
1
1
1
1
1
1
1
1
1
1
1
1
1
1
1
1
1
1
1
1
1
1
1
1
1
1
1
1
1
1
1
1
1
1
1
1
1
1
1
1
1
1
1
1
1
1
1
1
1
1
1
1
1
1
1
1
1
1
1
1
1
1
1
1
1
1
1
1
1
1
1
1
1
1
1
1
1
1
1
1
1
1
1
1
1
1
1
1
1
1
1
1
1
1
1
1
1
1
1
1
1
1
1
1
1
1
1
1
1
1
1
1
1
1
1
1
1
1
1
1
1
1
1
1
1
1
1
1
1
1
1
1
1
1
1
1
1
1
1
1
1
1
1
1
1
1
1
1
1
1
1
1
1
1
1
1
1
1
1
1
1
1
1
1
1
1
1
1
1
1
1
1
1
1
1
1
1
1
1
1
1
1
1
1
1
1
1
1
1
1
1
1
1
1
1
1
1
1
1
1
1
1
1
1
1
1
1
1
1
1
1
1
1
1
1
1
1
1
1
1
1
1
1
1
1
1
1
1
1
1
1
1
1
1
1
1
1
1
1
1
1
1
1
1
1
1
1
1
1
1
1
1
1
1
1
1
1
1
1
1
1
1
1
1
1
1
1
1
1
1
1
1
1
1
1
1
1
1
1
1
1
1
1
1
1
1
1
1
1
1
1
1
1
1
1
1
1
1
1
1
1
1
1
1
1
1
1
1
1
1
1
1
1
1
1
1
1
1
1
1
1
1
1
1
1
1
1
1
1
1
1
1
1
1
1
1
1
1
1
1
1
1
1
1
1
1
1
1
1
1
1
1
1
1
1
1
1
1
1
1
1
1
1
1
1
1
1
1
1
1
1
1
1
1
1
1
1
1
1
1
1
1
1
1
1
1
1
1
1
1
1
1
1
1
1
1
1
1
1
1
1
1
1
1
1
1
1
1
1
1
1
1
1
1
1
1
1
1
1
1
1
1
1
1
1
1
1
1
1
1
1
1
1
1
1
1
1
1
1
1
1
1
1
1
1
1
1
1
1
1
1
1
1
1
1
1
1
1
1
1
1
1
1
1
1
1
1
1
1
1
1
1
1
1
1
1
1
1
1
1
1
1
1
1
1
1
1
1
1
1
1
1
1
1
1
1
1
1
1
1
1
1
1
1
1
1
1
1
1
1
1
1
1
1
1
1
1
1
1
1
1
1
1
1
1
1
1
1
1
1
1
1
1
1
1
1
1
1
1
1
1
1
1
1
1
1
1
1
1
1
1
1
1
1
1
1
1
1
1
1
1
1
1
1
1
1
1
1
1
1
1
1
1
1
1
1
1
1
1
1
1
1
1
1
1
1
1
1
1
1
1
1
1
1
1
1
1
1
1
1
1
1
1
1
1
1
1
1
1
1
1
1
1
1
1
1
1
1
1
1
1
1
1
1
1
1
1
1
1
1
1
1
1
1
1
1
1
1
1
1
1
1
1
1
1
1
1
1
1
1
1
1
1
1
1
1
1
1
1
1
1
1
1
1
1
1
1
1
1
1
1
1
1
1
1
1
1
1
1
1
1
1
1
1
1
1
1
1
1
1
1
1
1
1
1
1
1
1
1
1
1
1
1
1
1
1
1
1
1
1
1
1
1
1
1
1
1
1
1
1
1
1
1
1
1
1
1
1
1
1
1
1
1
1
1
1
1
1
1
1
1
1
1
1
1
1
1
1
1
1
1
1
1
1
1
1
1
1
1
1
1
1
1
1
1
1
1
1
1
1
1
1
1
1
1
1
1
1
1
1
1
1
1
1
1
1
1
1
1
1
1
1
1
1
1
1
1
1
1
1
1
1
1
1
1
1
1
1
1
1
1
1
1
1
1
1
1
1
1
1
1
1
1
1
1
1
1
1
1
1
1
1
1
1
1
1
1
1
1
1
1
1
1
1
1
1
1
1
1
1
1
1
1
1
1
1
1
1
1
1
1
1
1
1
1
1
1
1
1
1
1
1
1
1
1
1
1
1
1
1
1
1
1
1
1
1
1
1
1
1
1
1
1
1
1
1
1
1
1
1
1
1
1
1
1
1
1
1
1
1
1
1
1
1
1
1
1
1
1
1
1
1
1
1
1
1
1
1
1
1
1
1
1
1
1
1
1
1
1
1
1
1
1
1
1
1
1
1
1
1
1
1
1
1
1
1
1
1
1
1
1
1
1
1
1
1
1
1
1
1
1
1
1
1
1
1
1
1
1
1
1
1
1
1
1
1
1
1
1
1
1
1
1
1
1
1
1
1
1
1
1
1
1
1
1
1
1
1
1
1
1
1
1
1
1
1
1
1
1
1
1
1
1
1
1
1
1
1
1
1
1
1
1
1
1
1
1
1
1
1
1
1
1
1
1
1
1
1
1
1
1
1
1
1
1
1
1
1
1
1
1
1
1
1
1
1
1
1
1
1
1
1
1
1
1
1
1
1
1
1
1
1
1
1
1
1
1
1
1
1
1
1
1
1
1
1
1
1
1
1
1
1
1
1
1
1
1
1
1
1
1
1
1
1
1
1
1
1
1
1
1
1
1
1
1
1
1
1
1
1
1
1
1
1
1
1
1
1
1
1
1
1
1
1
1
1
1
1
1
1
1
1
1
1
1
1
1
1
1
1
1
1
1
1
1
1
1
1
1
1
1
1
1
1
1
1
1
1
1
1
1
1
1
1
1
1
1
1
1
1
1
1
1
1
1
1
1
1
1
1
1
1
1
1
1
1
1
1.26724
1.69955
2.19811
2.66811
3.26319
3.86096
4.21291
4.59745
4.97851
5.17175
5.14439
4.98831
4.7426
4.4411
4.04599
3.75266
3.66757
3.61352
3.52398
3.50277
3.52036
3.58117
3.65327
3.69709
3.69377
3.68403
3.67978
3.68978
3.70479
3.71554
3.7232
3.73355
3.74967
3.75509
3.75734
3.75722
3.75002
3.74499
3.74391
3.74283
3.74119
3.73705
3.7286
3.7197
3.71534
3.71572
3.72086
3.73176
3.74267
3.74514
3.73958
3.72547
3.70066
3.66681
3.63397
3.60684
3.58049
3.55874
3.54648
3.54076
3.5368
3.53269
3.52822
3.52258
3.51355
3.50616
3.50283
3.50129
3.50084
3.50155
3.5044
3.5075
3.50727
3.49952
3.49023
3.4859
3.48585
3.48507
3.48297
3.48591
1.00067
1.00533
1.04553
1.14322
1.24415
1.47206
1.79259
2.12235
2.52099
2.93635
3.33935
3.5646
3.70468
3.88064
4.00361
3.9545
3.92105
3.92729
3.87839
3.78482
3.7178
3.7115
3.68768
3.66271
3.65281
3.64919
3.65721
3.67808
3.70271
3.7178
3.71984
3.7195
3.72032
3.72285
3.72575
3.7281
3.73058
3.73762
3.7476
3.75097
3.7515
3.75071
3.74631
3.74093
3.73651
3.73423
3.73616
3.73628
3.73106
3.72394
3.71635
3.70179
3.67808
3.65014
3.62278
3.59696
3.57204
3.55779
3.55266
3.54922
3.54477
3.53794
3.52933
3.51947
3.50763
3.50142
3.4989
3.49826
3.49847
3.49901
3.50034
3.50119
3.49981
3.49301
3.48355
3.47923
3.47966
3.48115
3.4816
3.48776
1
1
0.999978
1.00006
0.999886
1.0015
1.0122
1.04859
1.14667
1.35895
1.72054
2.32146
3.09287
3.71521
4.0027
4.25209
4.24363
4.20508
4.1486
4.04197
3.88445
3.70805
3.68039
3.65047
3.64553
3.65731
3.68999
3.70708
3.71661
3.7219
3.72209
3.71689
3.70769
3.70758
3.71097
3.71185
3.71503
3.72661
3.74342
3.74988
3.75311
3.75639
3.75491
3.75163
3.75206
3.7531
3.7528
3.74823
3.73411
3.71723
3.70308
3.68478
3.65965
3.63198
3.60643
3.58313
3.56634
3.56056
3.55755
3.55379
3.54906
3.54384
3.53661
3.52497
3.51172
3.50293
3.49918
3.49789
3.49702
3.4958
3.4947
3.49683
3.50174
3.5034
3.49414
3.48583
3.48235
3.48073
3.48042
3.48801
1
1
1
1
0.999999
0.999999
0.999986
1.00002
0.999943
1.00061
1.00783
1.07
1.27572
1.77782
2.41598
3.13983
3.6081
3.77957
3.91313
3.86604
3.83614
3.85679
3.86836
3.84578
3.78231
3.74526
3.72561
3.71086
3.70347
3.6989
3.69984
3.70125
3.7067
3.71422
3.71713
3.7159
3.71566
3.71919
3.72402
3.72693
3.72961
3.73498
3.74512
3.75623
3.76277
3.76536
3.76411
3.7579
3.74629
3.72829
3.7067
3.68366
3.65682
3.62772
3.59692
3.56712
3.55326
3.55037
3.55134
3.55315
3.55198
3.54825
3.54076
3.52867
3.51643
3.5084
3.50195
3.497
3.49374
3.49023
3.4871
3.4893
3.49834
3.50384
3.49709
3.48801
3.48282
3.47914
3.4783
3.48785
1
1
1
1
1
1
1
1
0.999999
0.999998
1
0.999964
1.00018
1.01106
1.09701
1.30726
1.82868
2.47753
3.18425
3.62157
3.85128
4.02131
4.00616
3.9733
3.91462
3.82745
3.69675
3.65692
3.67827
3.6979
3.6994
3.70346
3.71084
3.71408
3.71635
3.72327
3.72985
3.73028
3.72949
3.72719
3.72355
3.71989
3.72082
3.72687
3.73709
3.7491
3.75876
3.76132
3.75549
3.73934
3.7176
3.69237
3.66295
3.63062
3.59976
3.57208
3.55271
3.54496
3.54065
3.53764
3.53655
3.53664
3.53208
3.52461
3.51887
3.51394
3.50884
3.50389
3.49801
3.49151
3.48555
3.481
3.48802
3.50156
3.49547
3.4841
3.47707
3.47242
3.47121
3.48535
1
1
1
1
1
1
1
1
1
1
1
0.999999
0.999998
1
0.999976
1.00055
1.01795
1.12255
1.36076
1.94069
2.56656
3.28764
3.58546
3.68953
3.74795
3.71008
3.71502
3.72115
3.75055
3.75589
3.73738
3.73449
3.7256
3.71518
3.70965
3.71635
3.72867
3.73258
3.735
3.73659
3.73203
3.72473
3.71597
3.71317
3.71541
3.72719
3.7421
3.75258
3.75292
3.74465
3.72636
3.70049
3.66941
3.63649
3.61064
3.5881
3.56735
3.54984
3.53681
3.52797
3.52158
3.51658
3.51302
3.51168
3.51257
3.51312
3.51175
3.50814
3.50213
3.49342
3.48415
3.47617
3.47774
3.49132
3.49965
3.49226
3.48424
3.47901
3.47675
3.48714
1
1
1
1
1
1
1
1
1
1
1
1
1
1
0.999999
0.999998
1.00001
1.00005
1.0015
1.0309
1.16398
1.46789
2.07653
2.68926
3.37032
3.64752
3.74375
3.84469
3.83267
3.81233
3.7793
3.70626
3.65368
3.65331
3.67527
3.70516
3.72777
3.74489
3.75161
3.75323
3.74976
3.73048
3.71576
3.7136
3.71579
3.72442
3.73208
3.73809
3.74373
3.74106
3.72849
3.70575
3.67426
3.64285
3.61912
3.59759
3.57281
3.54801
3.53109
3.52085
3.51629
3.5114
3.50586
3.50263
3.50171
3.5035
3.50707
3.51022
3.51259
3.50867
3.49652
3.48392
3.47407
3.47972
3.49274
3.49348
3.48585
3.48096
3.47897
3.48756
1
1
1
1
1
1
1
1
1
1
1
1
1
1
1
1
1
1
1
0.999981
1.00023
1.00384
1.0574
1.22911
1.58696
2.24782
2.83821
3.47294
3.60305
3.64661
3.7235
3.69845
3.65946
3.66476
3.6881
3.70852
3.71942
3.72576
3.72972
3.73236
3.73637
3.74383
3.75028
3.75075
3.74698
3.74116
3.73524
3.72941
3.72715
3.72637
3.71759
3.69808
3.66821
3.63662
3.61421
3.59309
3.57296
3.55958
3.55048
3.53953
3.52582
3.51235
3.50245
3.49632
3.49192
3.49021
3.49525
3.50473
3.51031
3.51265
3.51001
3.49648
3.4825
3.47376
3.48368
3.49176
3.48767
3.48318
3.4816
3.48977
1
1
1
1
1
1
1
1
1
1
1
1
1
1
1
1
1
1
1
0.999999
0.999999
0.999999
1.00001
1.00082
1.00883
1.0983
1.33032
1.79099
2.42048
3.01836
3.55506
3.66771
3.70315
3.75611
3.74164
3.69523
3.69433
3.6891
3.67118
3.66713
3.68258
3.71625
3.73895
3.74826
3.75452
3.75429
3.74204
3.72398
3.71818
3.71545
3.7055
3.68416
3.65376
3.61502
3.58734
3.57281
3.56202
3.55456
3.55004
3.54682
3.54235
3.53445
3.52195
3.50487
3.49257
3.48702
3.48531
3.48812
3.49481
3.50403
3.50983
3.50651
3.49235
3.47985
3.47732
3.4859
3.48629
3.48307
3.48181
3.48956
1
1
1
1
1
1
1
1
1
1
1
1
1
1
1
1
1
1
1
1
1
1
1
1
0.999989
1.00013
1.00256
1.02311
1.17313
1.48096
2.05644
2.67824
3.23863
3.66169
3.69406
3.678
3.72115
3.71567
3.67092
3.66075
3.66853
3.68629
3.71157
3.73435
3.74709
3.74794
3.74215
3.72883
3.72312
3.71865
3.7061
3.68096
3.6472
3.60773
3.56629
3.54356
3.53693
3.53499
3.53837
3.54411
3.54199
3.53851
3.53759
3.53288
3.51776
3.49655
3.48228
3.47527
3.47527
3.48467
3.49918
3.50851
3.49984
3.48627
3.47808
3.4775
3.48092
3.48128
3.48219
3.49109
1
1
1
1
1
1
1
1
1
1
1
1
1
1
1
1
1
1
1
1
1
1
1
1
1
0.999999
1
0.999986
1.00072
1.00787
1.062
1.3202
1.74635
2.39672
2.90782
3.40772
3.69873
3.72173
3.69773
3.72585
3.72518
3.69992
3.7044
3.72242
3.7324
3.73798
3.74501
3.7535
3.75276
3.74544
3.72714
3.69787
3.66135
3.617
3.56729
3.53722
3.52866
3.52436
3.52212
3.52233
3.5248
3.52727
3.52949
3.53432
3.53293
3.51949
3.49779
3.482
3.47187
3.46779
3.47991
3.49861
3.50206
3.48998
3.48044
3.47681
3.47709
3.4791
3.4852
3.49782
1
1
1
1
1
1
1
1
1
1
1
1
1
1
1
1
1
1
1
1
1
1
1
1
1
1
1
0.999999
1
0.999992
1.00007
1.00339
1.02648
1.1486
1.51999
2.05339
2.76055
3.14305
3.52392
3.6944
3.70257
3.70157
3.73259
3.74575
3.74013
3.73973
3.74588
3.75318
3.75145
3.74196
3.72614
3.70602
3.68086
3.64838
3.60865
3.57255
3.54616
3.52634
3.51334
3.50539
3.50046
3.49744
3.49929
3.51521
3.5312
3.52976
3.51353
3.49275
3.47912
3.46847
3.46539
3.48109
3.49597
3.49149
3.48239
3.47738
3.47571
3.47621
3.48818
3.49965
1
1
1
1
1
1
1
1
1
1
1
1
1
1
1
1
1
1
1
1
1
1
1
1
1
1
1
1
1
0.999999
0.999999
1
1
1.00065
1.01287
1.07719
1.31952
1.87027
2.55453
3.1217
3.34535
3.60556
3.71733
3.73352
3.72108
3.71365
3.71397
3.71973
3.72616
3.72456
3.71719
3.70285
3.6796
3.65057
3.6234
3.60324
3.58757
3.57024
3.54575
3.51413
3.48813
3.47854
3.47566
3.48184
3.50245
3.51802
3.51628
3.50219
3.48666
3.4749
3.46689
3.46928
3.48325
3.48963
3.48515
3.47859
3.4747
3.47499
3.48703
3.49749
1
1
1
1
1
1
1
1
1
1
1
1
1
1
1
1
1
1
1
1
1
1
1
1
1
1
1
1
1
1
1
1
1
1
0.999995
1.00021
1.00415
1.05781
1.22682
1.70199
2.32709
3.05876
3.44663
3.52202
3.62878
3.64178
3.64308
3.65727
3.67139
3.6791
3.67328
3.65638
3.6317
3.61
3.59909
3.5895
3.58188
3.57841
3.5741
3.56072
3.52632
3.48417
3.46363
3.45822
3.46586
3.48879
3.50952
3.51254
3.49934
3.48324
3.47339
3.46923
3.47413
3.48504
3.48638
3.4827
3.47844
3.47734
3.48402
3.49321
1
1
1
1
1
1
1
1
1
1
1
1
1
1
1
1
1
1
1
1
1
1
1
1
1
1
1
1
1
1
1
1
1
1
0.999999
0.999999
0.999994
1.00015
1.00232
1.03148
1.17793
1.53027
2.17968
2.87591
3.44716
3.62082
3.65858
3.68519
3.68456
3.68135
3.67133
3.64148
3.60135
3.5654
3.54264
3.52987
3.52991
3.54683
3.56719
3.56959
3.55705
3.5272
3.48483
3.45854
3.45184
3.46202
3.48903
3.50955
3.50895
3.49556
3.4791
3.47126
3.47006
3.47461
3.4825
3.4847
3.48301
3.48027
3.482
3.48856
1
1
1
1
1
1
1
1
1
1
1
1
1
1
1
1
1
1
1
1
1
1
1
1
1
1
1
1
1
1
1
1
1
1
1
1
0.999999
1
0.999997
1.00004
1.00156
1.01515
1.14404
1.47742
2.1236
2.81918
3.39818
3.66353
3.73535
3.73685
3.74107
3.71194
3.65827
3.59503
3.53161
3.49766
3.48616
3.48349
3.50002
3.53376
3.551
3.54686
3.52801
3.4946
3.46427
3.45567
3.46365
3.48843
3.5042
3.50093
3.48764
3.47087
3.46518
3.46531
3.47205
3.48204
3.48546
3.48335
3.48207
3.48584
1
1
1
1
1
1
1
1
1
1
1
1
1
1
1
1
1
1
1
1
1
1
1
1
1
1
1
1
1
1
1
1
1
1
1
1
1
1
1
1
0.999999
1
1.00136
1.01376
1.12665
1.4966
2.10911
2.78524
3.33658
3.63941
3.70948
3.71583
3.70263
3.66912
3.62448
3.5684
3.50377
3.46045
3.45113
3.45676
3.49324
3.53452
3.54193
3.529
3.49537
3.46152
3.45346
3.46117
3.48592
3.49572
3.49304
3.47949
3.46134
3.45732
3.46098
3.47555
3.48822
3.48947
3.48593
3.48519
1
1
1
1
1
1
1
1
1
1
1
1
1
1
1
1
1
1
1
1
1
1
1
1
1
1
1
1
1
1
1
1
1
1
1
1
1
1
1
1
1
1
0.999999
1
1.00125
1.01498
1.11485
1.50462
2.18584
2.83664
3.27131
3.5474
3.63949
3.63688
3.62716
3.62773
3.59936
3.54009
3.46147
3.42884
3.4321
3.47379
3.53009
3.5383
3.52202
3.48262
3.4508
3.44773
3.45698
3.48275
3.48961
3.48634
3.47361
3.45738
3.45697
3.4669
3.48415
3.49179
3.491
3.48749
1
1
1
1
1
1
1
1
1
1
1
1
1
1
1
1
1
1
1
1
1
1
1
1
1
1
1
1
1
1
1
1
1
1
1
1
1
1
1
1
1
1
1
1
0.999999
1.00001
1.0012
1.01795
1.12836
1.56385
2.29994
2.94612
3.24035
3.38316
3.51987
3.58897
3.59964
3.59561
3.55016
3.46815
3.42203
3.42594
3.47048
3.51991
3.52596
3.51409
3.47751
3.44035
3.43695
3.44769
3.4771
3.49095
3.4883
3.47296
3.45978
3.46164
3.47409
3.48832
3.49463
3.49274
1
1
1
1
1
1
1
1
1
1
1
1
1
1
1
1
1
1
1
1
1
1
1
1
1
1
1
1
1
1
1
1
1
1
1
1
1
1
1
1
1
1
1
1
1
1
0.999998
1.00002
1.00161
1.02684
1.17169
1.64379
2.41559
2.94949
3.1806
3.34365
3.52331
3.56816
3.57167
3.5548
3.47995
3.41603
3.41593
3.45163
3.50765
3.51787
3.50746
3.4666
3.42831
3.42774
3.45011
3.48435
3.49324
3.49094
3.47547
3.462
3.46412
3.47912
3.49239
3.4917
1
1
1
1
1
1
1
1
1
1
1
1
1
1
1
1
1
1
1
1
1
1
1
1
1
1
1
1
1
1
1
1
1
1
1
1
1
1
1
1
1
1
1
1
1
1
1
1
0.999998
1.00007
1.00296
1.03732
1.2211
1.72644
2.43248
2.90645
3.15032
3.35675
3.53123
3.54457
3.5393
3.47567
3.39558
3.39335
3.43718
3.50397
3.51608
3.5038
3.45724
3.42424
3.4273
3.45151
3.48598
3.49363
3.49101
3.47562
3.46294
3.46551
3.47856
3.4874
1
1
1
1
1
1
1
1
1
1
1
1
1
1
1
1
1
1
1
1
1
1
1
1
1
1
1
1
1
1
1
1
1
1
1
1
1
1
1
1
1
1
1
1
1
1
1
1
1
1
0.999998
1.00016
1.00502
1.04985
1.24765
1.75459
2.4176
2.85936
3.16668
3.445
3.51842
3.51284
3.45875
3.37019
3.37222
3.43804
3.50585
3.51065
3.49995
3.45398
3.41615
3.4191
3.4476
3.48464
3.49157
3.48914
3.47463
3.45989
3.46164
3.47474
1
1
1
1
1
1
1
1
1
1
1
1
1
1
1
1
1
1
1
1
1
1
1
1
1
1
1
1
1
1
1
1
1
1
1
1
1
1
1
1
1
1
1
1
1
1
1
1
1
1
1
1
1
1.00028
1.00643
1.05439
1.27646
1.79029
2.36979
2.82896
3.20676
3.46382
3.47038
3.43508
3.35495
3.36111
3.43043
3.50075
3.50777
3.49778
3.45039
3.41461
3.41872
3.44553
3.48016
3.48641
3.4829
3.47215
3.46
3.46409
1
1
1
1
1
1
1
1
1
1
1
1
1
1
1
1
1
1
1
1
1
1
1
1
1
1
1
1
1
1
1
1
1
1
1
1
1
1
1
1
1
1
1
1
1
1
1
1
1
1
1
1
1
1
1
1.00038
1.00836
1.06129
1.27717
1.75701
2.32379
2.85281
3.31089
3.41965
3.4059
3.33193
3.33046
3.40571
3.49226
3.50245
3.49543
3.46154
3.42503
3.4217
3.43485
3.46091
3.47831
3.48156
3.47863
3.46764
1
1
1
1
1
1
1
1
1
1
1
1
1
1
1
1
1
1
1
1
1
1
1
1
1
1
1
1
1
1
1
1
1
1
1
1
1
1
1
1
1
1
1
1
1
1
1
1
1
1
1
1
1
1
1
0.999999
1.00001
1.00047
1.00787
1.0589
1.28845
1.73801
2.33458
2.94662
3.32781
3.36733
3.31796
3.30922
3.35905
3.46183
3.49448
3.49609
3.48304
3.44624
3.42148
3.42355
3.44151
3.47046
3.48336
3.4826
1
1
1
1
1
1
1
1
1
1
1
1
1
1
1
1
1
1
1
1
1
1
1
1
1
1
1
1
1
1
1
1
1
1
1
1
1
1
1
1
1
1
1
1
1
1
1
1
1
1
1
1
1
1
1
1
1
0.999999
1.00001
1.00051
1.00853
1.06203
1.29905
1.76776
2.39339
2.99076
3.3095
3.31007
3.29187
3.31789
3.39955
3.47963
3.49563
3.49542
3.47176
3.42701
3.41694
3.42772
3.46147
3.48267
1
1
1
1
1
1
1
1
1
1
1
1
1
1
1
1
1
1
1
1
1
1
1
1
1
1
1
1
1
1
1
1
1
1
1
1
1
1
1
1
1
1
1
1
1
1
1
1
1
1
1
1
1
1
1
1
1
1
1
1
1.00001
1.00059
1.00932
1.07231
1.32182
1.80672
2.45615
3.04941
3.30997
3.27977
3.27996
3.33423
3.44325
3.49059
3.49585
3.4845
3.43865
3.41291
3.42193
3.46108
1
1
1
1
1
1
1
1
1
1
1
1
1
1
1
1
1
1
1
1
1
1
1
1
1
1
1
1
1
1
1
1
1
1
1
1
1
1
1
1
1
1
1
1
1
1
1
1
1
1
1
1
1
1
1
1
1
1
1
1
1
0.999999
1.00002
1.00081
1.01085
1.08725
1.36084
1.9005
2.55181
3.11675
3.30121
3.27631
3.29563
3.38062
3.47491
3.49049
3.48728
3.45249
3.42088
3.43518
1
1
1
1
1
1
1
1
1
1
1
1
1
1
1
1
1
1
1
1
1
1
1
1
1
1
1
1
1
1
1
1
1
1
1
1
1
1
1
1
1
1
1
1
1
1
1
1
1
1
1
1
1
1
1
1
1
1
1
1
1
1
1
0.999999
1.00002
1.00119
1.0145
1.11558
1.42306
2.00667
2.67905
3.18612
3.27163
3.2635
3.3198
3.4403
3.48332
3.48772
3.4673
3.44091
1
1
1
1
1
1
1
1
1
1
1
1
1
1
1
1
1
1
1
1
1
1
1
1
1
1
1
1
1
1
1
1
1
1
1
1
1
1
1
1
1
1
1
1
1
1
1
1
1
1
1
1
1
1
1
1
1
1
1
1
1
1
1
1
1
1
1.00005
1.00199
1.02104
1.15636
1.51619
2.14136
2.86467
3.18967
3.22527
3.2928
3.4032
3.47328
3.48269
3.47616
1
1
1
1
1
1
1
1
1
1
1
1
1
1
1
1
1
1
1
1
1
1
1
1
1
1
1
1
1
1
1
1
1
1
1
1
1
1
1
1
1
1
1
1
1
1
1
1
1
1
1
1
1
1
1
1
1
1
1
1
1
1
1
1
1
1
1
1
1.00011
1.00349
1.03383
1.21505
1.66686
2.31282
3.0072
3.19538
3.25125
3.34341
3.45545
3.46869
1
1
1
1
1
1
1
1
1
1
1
1
1
1
1
1
1
1
1
1
1
1
1
1
1
1
1
1
1
1
1
1
1
1
1
1
1
1
1
1
1
1
1
1
1
1
1
1
1
1
1
1
1
1
1
1
1
1
1
1
1
1
1
1
1
1
1
1
1
1
1.00026
1.00658
1.05847
1.31908
1.86596
2.52735
3.13879
3.24293
3.34301
3.43315
1
1
1
1
1
1
1
1
1
1
1
1
1
1
1
1
1
1
1
1
1
1
1
1
1
1
1
1
1
1
1
1
1
1
1
1
1
1
1
1
1
1
1
1
1
1
1
1
1
1
1
1
1
1
1
1
1
1
1
1
1
1
1
1
1
1
1
1
1
1
1
1.00001
1.00069
1.01484
1.10857
1.4707
2.125
2.78853
3.15028
3.36208
1
1
1
1
1
1
1
1
1
1
1
1
1
1
1
1
1
1
1
1
1
1
1
1
1
1
1
1
1
1
1
1
1
1
1
1
1
1
1
1
1
1
1
1
1
1
1
1
1
1
1
1
1
1
1
1
1
1
1
1
1
1
1
1
1
1
1
1
1
1
1
1
1
1.00007
1.00213
1.03335
1.20005
1.7076
2.37085
3.07761
1
1
1
1
1
1
1
1
1
1
1
1
1
1
1
1
1
1
1
1
1
1
1
1
1
1
1
1
1
1
1
1
1
1
1
1
1
1
1
1
1
1
1
1
1
1
1
1
1
1
1
1
1
1
1
1
1
1
1
1
1
1
1
1
1
1
1
1
1
1
1
1
1
1
1
1.00031
1.00662
1.07791
1.3323
2.27842
1
1
1
1
1
1
1
1
1
1
1
1
1
1
1
1
1
1
1
1
1
1
1
1
1
1
1
1
1
1
1
1
1
1
1
1
1
1
1
1
1
1
1
1
1
1
1
1
1
1
1
1
1
1
1
1
1
1
1
1
1
1
1
1
1
1
1
1
1
1
1
1
1
1
1
1
1.00002
1.0014
1.01705
1.40432
1
1
1
1
1
1
1
1
1
1
1
1
1
1
1
1
1
1
1
1
1
1
1
1
1
1
1
1
1
1
1
1
1
1
1
1
1
1
1
1
1
1
1
1
1
1
1
1
1
1
1
1
1
1
1
1
1
1
1
1
1
1
1
1
1
1
1
1
1
1
1
1
1
1
1
1
1
1
1.00019
1.04767
1
1
1
1
1
1
1
1
1
1
1
1
1
1
1
1
1
1
1
1
1
1
1
1
1
1
1
1
1
1
1
1
1
1
1
1
1
1
1
1
1
1
1
1
1
1
1
1
1
1
1
1
1
1
1
1
1
1
1
1
1
1
1
1
1
1
1
1
1
1
1
1
1
1
1
1
1
1
1
1.00165
1
1
1
1
1
1
1
1
1
1
1
1
1
1
1
1
1
1
1
1
1
1
1
1
1
1
1
1
1
1
1
1
1
1
1
1
1
1
1
1
1
1
1
1
1
1
1
1
1
1
1
1
1
1
1
1
1
1
1
1
1
1
1
1
1
1
1
1
1
1
1
1
1
1
1
1
1
1
1
1.00001
1
1
1
1
1
1
1
1
1
1
1
1
1
1
1
1
1
1
1
1
1
1
1
1
1
1
1
1
1
1
1
1
1
1
1
1
1
1
1
1
1
1
1
1
1
1
1
1
1
1
1
1
1
1
1
1
1
1
1
1
1
1
1
1
1
1
1
1
1
1
1
1
1
1
1
1
1
1
1
1
)
;

boundaryField
{
    inlet
    {
        type            fixedValue;
        value           uniform 1;
    }
    outlet
    {
        type            zeroGradient;
    }
    bottom
    {
        type            symmetryPlane;
    }
    top
    {
        type            symmetryPlane;
    }
    obstacle
    {
        type            zeroGradient;
    }
    defaultFaces
    {
        type            empty;
    }
}


// ************************************************************************* //
