/*--------------------------------*- C++ -*----------------------------------*\
| =========                 |                                                 |
| \\      /  F ield         | OpenFOAM: The Open Source CFD Toolbox           |
|  \\    /   O peration     | Version:  2206                                  |
|   \\  /    A nd           | Website:  www.openfoam.com                      |
|    \\/     M anipulation  |                                                 |
\*---------------------------------------------------------------------------*/
FoamFile
{
    version     2.0;
    format      ascii;
    arch        "LSB;label=32;scalar=64";
    class       volScalarField;
    location    "0.18";
    object      T;
}
// * * * * * * * * * * * * * * * * * * * * * * * * * * * * * * * * * * * * * //

dimensions      [0 0 0 1 0 0 0];

internalField   nonuniform List<scalar> 
75
(
1
1
1
1
1
1
1
1
1
1
1
1
1
1
1
1
1
1
1
1
1
1
1
1
1
1.07325
1.1759
1.29098
1.41038
1.53887
1.66703
1.79759
1.90835
2.0053
2.02891
0.9996
0.999943
1.00176
1.02708
1.07317
1.17052
1.28044
1.41152
1.52942
1.69608
0.999982
0.999983
0.999964
1.00002
0.999377
1.00142
1.00306
1.03767
1.13101
1.60266
1
0.999999
0.999997
0.999996
0.999958
0.999931
0.999944
0.999564
1.00232
1.23716
1
1
1
0.999999
1
0.999987
0.99998
0.999923
0.999891
1.02664
)
;

boundaryField
{
    inlet
    {
        type            fixedValue;
        value           uniform 1;
    }
    outlet
    {
        type            zeroGradient;
    }
    bottom
    {
        type            symmetryPlane;
    }
    top
    {
        type            symmetryPlane;
    }
    obstacle
    {
        type            zeroGradient;
    }
    defaultFaces
    {
        type            empty;
    }
}


// ************************************************************************* //
