/*--------------------------------*- C++ -*----------------------------------*\
| =========                 |                                                 |
| \\      /  F ield         | OpenFOAM: The Open Source CFD Toolbox           |
|  \\    /   O peration     | Version:  2206                                  |
|   \\  /    A nd           | Website:  www.openfoam.com                      |
|    \\/     M anipulation  |                                                 |
\*---------------------------------------------------------------------------*/
FoamFile
{
    version     2.0;
    format      ascii;
    arch        "LSB;label=32;scalar=64";
    class       volVectorField;
    location    "0.18";
    object      U;
}
// * * * * * * * * * * * * * * * * * * * * * * * * * * * * * * * * * * * * * //

dimensions      [0 1 -1 0 0 0 0];

internalField   nonuniform List<vector> 
75
(
(5.46465 4.01028e-15 0)
(5.46465 4.02194e-15 0)
(5.46465 1.91796e-14 0)
(5.46465 9.96214e-15 0)
(5.46465 3.86863e-14 0)
(5.46465 1.20854e-17 0)
(5.46465 3.66147e-15 0)
(5.46465 3.2664e-15 0)
(5.46465 2.9876e-15 0)
(5.46465 1.13311e-14 0)
(5.46465 -3.406e-15 0)
(5.46465 -2.66213e-15 0)
(5.46465 -1.67287e-14 0)
(5.46465 -6.93911e-15 0)
(5.46465 -1.60111e-14 0)
(5.46465 3.56853e-15 0)
(5.46465 1.10477e-15 0)
(5.46465 -5.44469e-15 0)
(5.46465 2.41708e-16 0)
(5.46465 7.93223e-15 0)
(5.46465 4.12655e-15 0)
(5.46465 4.0682e-15 0)
(5.46465 -2.67546e-16 0)
(5.46465 7.63715e-15 0)
(5.46465 7.68299e-15 0)
(5.43557 -0.0101602 0)
(5.38423 0.0787778 0)
(5.33704 0.101799 0)
(5.27114 0.25636 0)
(5.22423 0.317263 0)
(5.14415 0.49614 0)
(5.09685 0.592776 0)
(5.01421 0.760912 0)
(4.96556 0.913385 0)
(4.88196 1.08901 0)
(5.46538 -0.00183519 0)
(5.46368 0.00214899 0)
(5.46528 -0.00424083 0)
(5.44071 0.0505818 0)
(5.41615 0.111882 0)
(5.32353 0.335822 0)
(5.26129 0.539587 0)
(5.08865 0.952824 0)
(5.01307 1.24686 0)
(4.7557 1.67069 0)
(5.46466 -4.22856e-05 0)
(5.46466 -4.18463e-05 0)
(5.46467 -4.92623e-05 0)
(5.46463 1.81184e-05 0)
(5.46509 -0.000908469 0)
(5.46338 0.00313514 0)
(5.46426 0.000501603 0)
(5.44341 0.0740193 0)
(5.43217 0.139849 0)
(5.16553 0.876736 0)
(5.46465 5.2104e-07 0)
(5.46465 -2.19381e-06 0)
(5.46465 -5.93822e-06 0)
(5.46465 -8.75601e-06 0)
(5.46465 -4.43628e-05 0)
(5.46476 -0.000218059 0)
(5.46467 -0.000134431 0)
(5.46473 -0.000527827 0)
(5.46438 0.00212913 0)
(5.36392 0.341819 0)
(5.46465 4.9502e-08 0)
(5.46465 3.20377e-08 0)
(5.46465 2.06189e-08 0)
(5.46465 -1.24284e-06 0)
(5.46465 2.71742e-08 0)
(5.46466 -3.24865e-05 0)
(5.46466 -2.51653e-05 0)
(5.46469 -0.00015052 0)
(5.46472 -0.000125295 0)
(5.44781 0.0297467 0)
)
;

boundaryField
{
    inlet
    {
        type            fixedValue;
        value           uniform (5.46465 0 0);
    }
    outlet
    {
        type            zeroGradient;
    }
    bottom
    {
        type            symmetryPlane;
    }
    top
    {
        type            symmetryPlane;
    }
    obstacle
    {
        type            slip;
    }
    defaultFaces
    {
        type            empty;
    }
}


// ************************************************************************* //
