/*--------------------------------*- C++ -*----------------------------------*\
| =========                 |                                                 |
| \\      /  F ield         | OpenFOAM: The Open Source CFD Toolbox           |
|  \\    /   O peration     | Version:  2206                                  |
|   \\  /    A nd           | Website:  www.openfoam.com                      |
|    \\/     M anipulation  |                                                 |
\*---------------------------------------------------------------------------*/
FoamFile
{
    version     2.0;
    format      ascii;
    arch        "LSB;label=32;scalar=64";
    class       volScalarField;
    location    "0.12";
    object      p;
}
// * * * * * * * * * * * * * * * * * * * * * * * * * * * * * * * * * * * * * //

dimensions      [1 -1 -2 0 0 0 0];

internalField   nonuniform List<scalar> 
4800
(
1
1
1
1
1
1
1
1
1
1
1
1
1
1
1
1
1
1
1
1
1
1
1
1
1
1
1
1
1
1
1
1
1
1
1
1
1
1
1
1
1
1
1
1
1
1
1
1
1
1
1
1
1
1
1
1
1
1
1
1
1
1
1
1
1
1
1
1
1
1
1
1
1
1
1
1
1
1
1
1
1
1
1
1
1
1
1
1
1
1
1
1
1
1
1
1
1
1
1
1
1
1
1
1
1
1
1
1
1
1
1
1
1
1
1
1
1
1
1
1
1
1
1
1
1
1
1
1
1
1
1
1
1
1
1
1
1
1
1
1
1
1
1
1
1
1
1
1
1
1
1
1
1
1
1
1
1
1
1
1
1
1
1
1
1
1
1
1
1
1
1
1
1
1
1
1
1
1
1
1
1
1
1
1
1
1
1
1
1
1
1
1
1
1
1
1
1
1
1
1
1
1
1
1
1
1
1
1
1
1
1
1
1
1
1
1
1
1
1
1
1
1
1
1
1
1
1
1
1
1
1
1
1
1
1
1
1
1
1
1
1
1
1
1
1
1
1
1
1
1
1
1
1
1
1
1
1
1
1
1
1
1
1
1
1
1
1
1
1
1
1
1
1
1
1
1
1
1
1
1
1
1
1
1
1
1
1
1
1
1
1
1
1
1
1
1
1
1
1
1
1
1
1
1
1
1
1
1
1
1
1
1
1
1
1
1
1
1
1
1
1
1
1
1
1
1
1
1
1
1
1
1
1
1
1
1
1
1
1
1
1
1
1
1
1
1
1
1
1
1
1
1
1
1
1
1
1
1
1
1
1
1
1
1
1
1
1
1
1
1
1
1
1
1
1
1
1
1
1
1
1
1
1
1
1
1
1
1
1
1
1
1
1
1
1
1
1
1
1
1
1
1
1
1
1
1
1
1
1
1
1
1
1
1
1
1
1
1
1
1
1
1
1
1
1
1
1
1
1
1
1
1
1
1
1
1
1
1
1
1
1
1
1
1
1
1
1
1
1
1
1
1
1
1
1
1
1
1
1
1
1
1
1
1
1
1
1
1
1
1
1
1
1
1
1
1
1
1
1
1
1
1
1
1
1
1
1
1
1
1
1
1
1
1
1
1
1
1
1
1
1
1
1
1
1
1
1
1
1
1
1
1
1
1
1
1
1
1
1
1
1
1
1
1
1
1
1
1
1
1
1
1
1
1
1
1
1
1
1
1
1
1
1
1
1
1
1
1
1
1
1
1
1
1
1
1
1
1
1
1
1
1
1
1
1
1
1
1
1
1
1
1
1
1
1
1
1
1
1
1
1
1
1
1
1
1
1
1
1
1
1
1
1
1
1
1
1
1
1
1
1
1
1
1
1
1
1
1
1
1
1
1
1
1
1
1
1
1
1
1
1
1
1
1
1
1
1
1
1
1
1
1
1
1
1
1
1
1
1
1
1
1
1
1
1
1
1
1
1
1
1
1
1
1
1
1
1
1
1
1
1
1
1
1
1
1
1
1
1
1
1
1
1
1
1
1
1
1
1
1
1
1
1
1
1
1
1
1
1
1
1
1
1
1
1
1
1
1
1
1
1
1
1
1
1
1
1
1
1
1
1
1
1
1
1
1
1
1
1
1
1
1
1
1
1
1
1
1
1
1
1
1
1
1
1
1
1
1
1
1
1
1
1
1
1
1
1
1
1
1
1
1
1
1
1
1
1
1
1
1
1
1
1
1
1
1
1
1
1
1
1
1
1
1
1
1
1
1
1
1
1
1
1
1
1
1
1
1
1
1
1
1
1
1
1
1
1
1
1
1
1
1
1
1
1
1
1
1
1
1
1
1
1
1
1
1
1
1
1
1
1
1
1
1
1
1
1
1
1
1
1
1
1
1
1
1
1
1
1
1
1
1
1
1
1
1
1
1
1
1
1
1
1
1
1
1
1
1
1
1
1
1
1
1
1
1
1
1
1
1
1
1
1
1
1
1
1
1
1
1
1
1
1
1
1
1
1
1
1
1
1
1
1
1
1
1
1
1
1
1
1
1
1
1
1
1
1
1
1
1
1
1
1
1
1
1
1
1
1
1
1
1
1
1
1
1
1
1
1
1
1
1
1
1
1
1
1
1
1
1
1
1
1
1
1
1
1
1
1
1
1
1
1
1
1
1
1
1
1
1
1
1
1
1
1
1
1
1
1
1
1
1
1
1
1
1
1
1
1
1
1
1
1
1
1
1
1
1
1
1
1
1
1
1
1
1
1
1
1
1
1
1
1
1
1
1
1
1
1
1
1
1
1
1
1
1
1
1
1
1
1
1
1
1
1
1
1
1
1
1
1
1
1
1
1
1
1
1
1
1
1
1
1
1
1
1
1
1
1
1
1
1
1
1
1
1
1
1
1
1
1
1
1
1
1
1
1
1
1
1
1
1
1
1
1
1
1
1
1
1
1
1
1
1
1
1
1
1
1
1
1
1
1
1
1
1
1
1
1
1
1
1
1
1
1
1
1
1
1
1
1
1
1
1
1
1
1
1
1
1
1
1
1
1
1
1
1
1
1
1
1
1
1
1
1
1
1
1
1
1
1
1
1
1
1
1
1
1
1
1
1
1
1
1
1
1
1
1
1
1
1
1
1
1
1
1
1
1
1
1
1
1
1
1
1
1
1
1
1
1
1
1
1
1
1
1
1
1
1
1
1
1
1
1
1
1
1
1
1
1
1
1
1
1
1
1
1
1
1
1
1
1
1
1
1
1
1
1
1
1
1
1
1
1
1
1
1
1
1
1
1
1
1
1
1
1
1
1
1
1
1
1
1
1
1
1
1
1
1
1
1
1
1
1
1
1
1
1
1
1
1
1
1
1
1
1
1
1
1
1
1
1
1
1
1
1
1
1
1
1
1
1
1
1
1
1
1
1
1
1
1
1
1
1
1
1
1
1
1
1
1
1
1
1
1
1
1
1
1
1
1
1
1
1
1
1
1
1
1
1
1
1
1
1
1
1
1
1
1
1
1
1
1
1
1
1
1
1
1
1
1
1
1
1
1
1
1
1
1
1
1
1
1
1
1
1
1
1
1
1
1
1
1
1
1
1
1
1
1
1
1
1
1
1
1
1
1
1
1
1
1
1
1
1
1
1
1
1
1
1
1
1
1
1
1
1
1
1
1
1
1
1
1
1
1
1
1
1
1
1
1
1
1
1
1
1
1
1
1
1
1
1
1
1
1
1
1
1
1
1
1
1
1
1
1
1
1
1
1
1
1
1
1
1
1
1
1
1
1
1
1
1
1
1
1
1
1
1
1
1
1
1
1
1
1
1
1
1
1
1
1
1
1
1
1
1
1
1
1
1
1
1
1
1
1
1
1
1
1
1
1
1
1
1
1
1
1
1
1
1
1
1
1
1
1
1
1
1
1
1
1
1
1
1
1
1
1
1
1
1
1
1
1
1
1
1
1
1
1
1
1
1
1
1
1
1
1
1
1
1
1
1
1
1
1
1
1
1
1
1
1
1
1
1
1
1
1
1
1
1
1
1
1
1
1
1
1
1
1
1
1
1
1
1
1
1
1
1
1
1
1
1
1
1
1
1
1
1
1
1
1
1
1
1
1
1
1
1
1
1
1.26265
1.67748
2.2034
2.73965
3.26639
3.95139
4.67053
5.03788
5.38286
6.07355
6.4169
6.43602
6.44381
6.41206
6.25958
5.89201
5.36078
4.89983
4.65138
4.4476
4.24209
4.2086
4.22821
4.25578
4.27623
4.31138
4.36937
4.45638
4.49544
4.49218
4.47699
4.47534
4.4945
4.5186
4.52415
4.52355
4.52832
4.54855
4.56845
4.5787
4.57868
4.57066
4.557
4.54373
4.52825
4.51522
4.50711
4.50443
4.50768
4.52643
4.56135
4.58922
4.60208
4.60345
4.59892
4.58716
4.57044
4.5466
4.52424
4.51129
4.50691
4.50793
4.5176
4.53425
4.55594
4.57535
4.59044
4.60343
4.6132
4.616
4.61425
4.60776
4.59739
4.58021
4.56194
4.55013
4.54384
4.54151
4.5408
4.55072
1
0.999126
1.00068
1.04738
1.13262
1.2115
1.41594
1.7799
2.09381
2.47427
2.9896
3.45772
3.81644
4.21379
4.54769
4.54279
4.67737
4.94432
4.94861
4.89259
4.79722
4.67007
4.63267
4.58916
4.52807
4.46309
4.42764
4.43134
4.43302
4.4312
4.43217
4.44618
4.48019
4.51296
4.52154
4.51869
4.51219
4.51484
4.52344
4.53538
4.54789
4.55498
4.55605
4.55475
4.55671
4.55717
4.55132
4.53815
4.52916
4.52967
4.53298
4.54
4.55083
4.56174
4.56966
4.57166
4.56818
4.56495
4.56289
4.56069
4.55897
4.55791
4.55536
4.55166
4.5494
4.54937
4.55028
4.55517
4.56611
4.58184
4.59124
4.59284
4.59047
4.58558
4.58058
4.57851
4.57741
4.57725
4.57922
4.57803
1
1
0.999999
1
0.999999
1
1
0.998996
1.00553
1.031
1.13153
1.32474
1.67889
2.20246
2.96484
3.86613
4.50602
5.13453
5.24138
5.20188
5.1702
5.10806
5.01486
4.89437
4.72911
4.50277
4.41716
4.4277
4.42948
4.41991
4.42753
4.44809
4.48494
4.5266
4.53287
4.52932
4.51778
4.5031
4.5037
4.50604
4.50957
4.5273
4.5593
4.57752
4.58288
4.58251
4.5742
4.56418
4.55638
4.54672
4.53635
4.52991
4.52311
4.5182
4.52095
4.53662
4.55651
4.57283
4.58295
4.58896
4.59356
4.59588
4.59364
4.58162
4.56116
4.54532
4.53689
4.53348
4.53335
4.53906
4.55249
4.56674
4.57662
4.5842
4.58999
4.59366
4.59778
4.60205
4.60584
4.60304
1
1
1
1
1
1
1
1
1
1
1
1
0.998996
1.01118
1.0814
1.39878
1.93332
2.73536
3.56382
4.10694
4.66211
4.77141
4.78392
4.79053
4.77274
4.7218
4.68148
4.65732
4.62346
4.55017
4.52879
4.49743
4.48282
4.48534
4.48007
4.47774
4.47497
4.48079
4.49245
4.49746
4.49511
4.5002
4.52371
4.55305
4.57246
4.58408
4.59072
4.59039
4.58325
4.56992
4.55713
4.54564
4.53076
4.51339
4.50356
4.50633
4.51859
4.53963
4.56816
4.59693
4.61347
4.61622
4.6118
4.59749
4.57138
4.54765
4.53655
4.53383
4.53532
4.54052
4.54731
4.55025
4.55352
4.56084
4.57109
4.58342
4.59794
4.61059
4.61737
4.61356
1
1
1
1
1
1
1
1
1
1
1
1
1
1
1
0.999394
1.00359
1.04779
1.32397
1.78208
2.45944
3.21996
3.88947
4.67199
4.80903
4.92395
4.9331
4.89401
4.82818
4.71679
4.5582
4.4482
4.45418
4.48248
4.49149
4.48215
4.47376
4.47898
4.48339
4.48673
4.49169
4.49247
4.50705
4.52201
4.53132
4.54237
4.56036
4.57434
4.5768
4.57361
4.56565
4.55759
4.54792
4.53489
4.51987
4.5138
4.51531
4.52212
4.53379
4.55421
4.58067
4.59691
4.60043
4.5962
4.5779
4.56309
4.56263
4.56428
4.5663
4.56869
4.5676
4.56423
4.55952
4.5589
4.55975
4.56234
4.56971
4.58076
4.59362
4.59977
1
1
1
1
1
1
1
1
1
1
1
1
1
1
1
1
1
1
0.999568
1.00139
1.03049
1.23332
1.58701
2.24324
3.0308
3.72323
4.39678
4.47473
4.56521
4.5274
4.50889
4.51734
4.55307
4.59889
4.60467
4.57268
4.54389
4.53494
4.52013
4.50846
4.49332
4.48119
4.49058
4.50248
4.50905
4.51316
4.51939
4.53216
4.55112
4.57294
4.58674
4.588
4.58527
4.58074
4.5693
4.54595
4.53583
4.53528
4.5324
4.53274
4.53937
4.54686
4.55141
4.55635
4.56248
4.57017
4.57976
4.58946
4.59805
4.6026
4.60109
4.59294
4.58008
4.56814
4.55963
4.55638
4.55456
4.55525
4.56018
4.56938
1
1
1
1
1
1
1
1
1
1
1
1
1
1
1
1
1
1
1
1
1
0.999989
0.999951
1.02105
1.18864
1.4838
2.07879
2.82703
3.60088
4.2728
4.45782
4.66932
4.70334
4.67652
4.64881
4.60641
4.55124
4.50042
4.50133
4.50849
4.516
4.52152
4.50722
4.48947
4.48144
4.47305
4.46969
4.47757
4.49831
4.53086
4.57091
4.59498
4.59931
4.5998
4.60132
4.60043
4.57887
4.54816
4.53182
4.52423
4.52298
4.52329
4.52287
4.52531
4.53143
4.54409
4.56672
4.59379
4.61457
4.62113
4.61896
4.61076
4.59206
4.56277
4.54428
4.5432
4.54043
4.5397
4.54359
4.5529
1
1
1
1
1
1
1
1
1
1
1
1
1
1
1
1
1
1
1
1
1
1
1
1
0.99999
0.999753
1.01646
1.15361
1.40532
2.01441
2.75993
3.58766
4.12777
4.23935
4.37915
4.35398
4.36495
4.48299
4.54347
4.57881
4.60585
4.60722
4.58579
4.55575
4.53298
4.49855
4.46494
4.46082
4.47117
4.49401
4.51899
4.54713
4.57815
4.59451
4.60169
4.60324
4.60401
4.60022
4.58744
4.57068
4.55349
4.53929
4.53093
4.52566
4.52373
4.52605
4.54029
4.56663
4.59362
4.60546
4.60541
4.59952
4.58466
4.56894
4.56133
4.5501
4.54644
4.54817
4.55577
4.56491
1
1
1
1
1
1
1
1
1
1
1
1
1
1
1
1
1
1
1
1
1
1
1
1
1
1
1
0.999992
0.999835
1.01748
1.14122
1.40112
1.99771
2.72248
3.53936
3.97422
4.2695
4.50127
4.54271
4.56307
4.59023
4.60308
4.59397
4.5701
4.54085
4.53043
4.51724
4.50147
4.49643
4.49309
4.49217
4.50072
4.51182
4.52252
4.53713
4.5594
4.58332
4.59702
4.60063
4.60432
4.60548
4.5976
4.57885
4.55414
4.53342
4.52703
4.52934
4.54194
4.55673
4.56516
4.56517
4.56177
4.56126
4.56419
4.56677
4.56667
4.56643
4.57195
4.58032
4.58241
1
1
1
1
1
1
1
1
1
1
1
1
1
1
1
1
1
1
1
1
1
1
1
1
1
1
1
1
0.999999
1
0.999963
1.00011
1.02377
1.13489
1.3783
2.02966
2.7848
3.65764
3.96255
4.16772
4.33182
4.38194
4.43963
4.48661
4.53268
4.58481
4.60216
4.59516
4.58248
4.5715
4.54619
4.50411
4.48284
4.48309
4.49033
4.50075
4.51442
4.54483
4.58195
4.60452
4.61427
4.61773
4.61723
4.60888
4.5893
4.56328
4.54581
4.54243
4.54358
4.5447
4.54354
4.54205
4.5436
4.54843
4.55649
4.56835
4.5786
4.59
4.59712
4.597
1
1
1
1
1
1
1
1
1
1
1
1
1
1
1
1
1
1
1
1
1
1
1
1
1
1
1
1
1
1
0.999999
0.999998
1.00001
0.999928
1.0005
1.03304
1.15402
1.48859
2.17481
2.93636
3.68208
3.98061
4.25905
4.38285
4.45996
4.54224
4.60946
4.61851
4.61599
4.61085
4.59604
4.57466
4.54866
4.51481
4.48955
4.48452
4.49262
4.50431
4.51704
4.53298
4.55669
4.5853
4.60324
4.60422
4.59759
4.58929
4.58595
4.5812
4.57382
4.56154
4.54604
4.53616
4.53805
4.54522
4.55325
4.56008
4.56915
4.58385
4.59579
4.59612
1
1
1
1
1
1
1
1
1
1
1
1
1
1
1
1
1
1
1
1
1
1
1
1
1
1
1
1
1
1
1
1
1
0.999999
0.999997
1.00002
0.999959
1.00253
1.0548
1.18516
1.59468
2.34221
3.23858
3.78252
3.99568
4.21294
4.37182
4.48877
4.55101
4.58089
4.60438
4.6166
4.61281
4.59768
4.58319
4.56776
4.54241
4.51383
4.50026
4.5027
4.51103
4.52188
4.53273
4.55089
4.56341
4.57564
4.58631
4.59629
4.60178
4.59941
4.58875
4.56957
4.55521
4.55043
4.55087
4.55461
4.56348
4.57091
4.57616
4.57817
1
1
1
1
1
1
1
1
1
1
1
1
1
1
1
1
1
1
1
1
1
1
1
1
1
1
1
1
1
1
1
1
1
1
1
1
0.999999
0.999994
1.00006
1.00007
1.00755
1.08275
1.29516
1.87735
2.66138
3.56085
3.9263
4.15692
4.27178
4.34832
4.46313
4.5718
4.6006
4.60484
4.61329
4.61918
4.61895
4.60712
4.57942
4.53798
4.51238
4.50705
4.50907
4.5097
4.51427
4.5246
4.55153
4.58815
4.60033
4.60084
4.59411
4.58514
4.58219
4.5806
4.57492
4.5706
4.5681
4.56436
4.56324
4.56207
1
1
1
1
1
1
1
1
1
1
1
1
1
1
1
1
1
1
1
1
1
1
1
1
1
1
1
1
1
1
1
1
1
1
1
1
1
1
1
0.999999
1.00001
0.999998
1.00092
1.03057
1.14714
1.49401
2.22622
3.18835
3.8593
4.05011
4.19867
4.31847
4.39204
4.45562
4.53771
4.59976
4.63396
4.63732
4.62298
4.60932
4.59633
4.58109
4.55679
4.52304
4.50401
4.50719
4.53023
4.55005
4.55981
4.56146
4.56437
4.57438
4.58075
4.58763
4.58913
4.58731
4.58416
4.57609
4.56865
4.56246
1
1
1
1
1
1
1
1
1
1
1
1
1
1
1
1
1
1
1
1
1
1
1
1
1
1
1
1
1
1
1
1
1
1
1
1
1
1
1
1
1
1
0.999998
1
1.00016
1.00575
1.08143
1.30575
1.88266
2.70411
3.70272
4.06626
4.19184
4.29244
4.30852
4.39292
4.51046
4.58481
4.60155
4.6071
4.60785
4.61685
4.62059
4.60431
4.57367
4.55094
4.54881
4.55078
4.54954
4.54374
4.53623
4.53991
4.55109
4.56575
4.57532
4.57508
4.5744
4.57464
4.57118
4.56621
1
1
1
1
1
1
1
1
1
1
1
1
1
1
1
1
1
1
1
1
1
1
1
1
1
1
1
1
1
1
1
1
1
1
1
1
1
1
1
1
1
1
1
1
0.999999
0.999994
1.00007
1.00158
1.03538
1.17975
1.62777
2.42618
3.49128
4.18151
4.22915
4.31202
4.39338
4.43263
4.4359
4.44604
4.48077
4.55147
4.60186
4.60025
4.59265
4.59553
4.606
4.61419
4.60802
4.57637
4.54024
4.52773
4.53469
4.54487
4.55048
4.55303
4.55435
4.55872
4.55918
4.55733
1
1
1
1
1
1
1
1
1
1
1
1
1
1
1
1
1
1
1
1
1
1
1
1
1
1
1
1
1
1
1
1
1
1
1
1
1
1
1
1
1
1
1
1
1
1
1
1
0.999999
1.00056
1.01429
1.13965
1.53213
2.33508
3.24215
4.00452
4.41506
4.43854
4.41854
4.37039
4.37358
4.41806
4.49044
4.52908
4.54274
4.57636
4.61243
4.63057
4.62767
4.60549
4.58693
4.56841
4.55581
4.55013
4.54899
4.55004
4.55264
4.55431
4.54863
4.54019
1
1
1
1
1
1
1
1
1
1
1
1
1
1
1
1
1
1
1
1
1
1
1
1
1
1
1
1
1
1
1
1
1
1
1
1
1
1
1
1
1
1
1
1
1
1
1
1
1
0.999999
0.999984
1.00048
1.00887
1.11693
1.44445
2.15336
3.08579
4.0575
4.44941
4.43438
4.47312
4.49811
4.49594
4.48669
4.46129
4.47054
4.50388
4.55089
4.58338
4.57665
4.57348
4.58105
4.58049
4.5717
4.57455
4.58028
4.5861
4.58332
4.5671
4.5381
1
1
1
1
1
1
1
1
1
1
1
1
1
1
1
1
1
1
1
1
1
1
1
1
1
1
1
1
1
1
1
1
1
1
1
1
1
1
1
1
1
1
1
1
1
1
1
1
1
1
0.999998
0.999999
0.999986
1.00043
1.00613
1.08432
1.38942
2.14943
3.19454
3.93486
4.33542
4.5959
4.6226
4.60587
4.51952
4.47745
4.47833
4.47858
4.49108
4.49802
4.50333
4.53794
4.56501
4.57252
4.57765
4.58796
4.6015
4.61187
4.61125
4.58123
1
1
1
1
1
1
1
1
1
1
1
1
1
1
1
1
1
1
1
1
1
1
1
1
1
1
1
1
1
1
1
1
1
1
1
1
1
1
1
1
1
1
1
1
1
1
1
1
1
1
1
1
0.999998
0.999998
0.99999
1.00024
1.0055
1.08494
1.52873
2.32988
3.11998
3.96037
4.50597
4.5853
4.58171
4.62482
4.64216
4.60268
4.54035
4.50554
4.50009
4.51792
4.53244
4.53173
4.52728
4.53184
4.55978
4.59989
4.62333
4.6182
1
1
1
1
1
1
1
1
1
1
1
1
1
1
1
1
1
1
1
1
1
1
1
1
1
1
1
1
1
1
1
1
1
1
1
1
1
1
1
1
1
1
1
1
1
1
1
1
1
1
1
1
1
1
0.999999
0.999999
0.999991
1.00043
1.01182
1.11599
1.54979
2.34775
3.3347
3.99191
4.34923
4.55111
4.62515
4.63193
4.62056
4.59112
4.57044
4.57424
4.56909
4.54448
4.5102
4.4815
4.47454
4.50476
4.58657
4.62384
1
1
1
1
1
1
1
1
1
1
1
1
1
1
1
1
1
1
1
1
1
1
1
1
1
1
1
1
1
1
1
1
1
1
1
1
1
1
1
1
1
1
1
1
1
1
1
1
1
1
1
1
1
1
1
1
0.999999
0.999999
0.99999
1.00075
1.01456
1.11668
1.6693
2.8225
3.59604
4.00266
4.39137
4.54736
4.51115
4.51386
4.57112
4.62935
4.66079
4.65146
4.60645
4.52297
4.46146
4.45811
4.50167
4.5903
1
1
1
1
1
1
1
1
1
1
1
1
1
1
1
1
1
1
1
1
1
1
1
1
1
1
1
1
1
1
1
1
1
1
1
1
1
1
1
1
1
1
1
1
1
1
1
1
1
1
1
1
1
1
1
1
1
1
0.999998
0.999999
0.999995
1.00098
1.03117
1.25505
2.01219
2.99405
4.03871
4.33478
4.31367
4.3148
4.33882
4.44703
4.61689
4.68649
4.67775
4.64309
4.55328
4.47837
4.48413
4.53761
1
1
1
1
1
1
1
1
1
1
1
1
1
1
1
1
1
1
1
1
1
1
1
1
1
1
1
1
1
1
1
1
1
1
1
1
1
1
1
1
1
1
1
1
1
1
1
1
1
1
1
1
1
1
1
1
1
1
1
1
0.999999
0.999997
1.00008
1.00433
1.08079
1.38607
2.24379
3.44322
4.36973
4.43618
4.28871
4.26682
4.40477
4.62638
4.68224
4.68141
4.6404
4.52076
4.4679
4.49091
1
1
1
1
1
1
1
1
1
1
1
1
1
1
1
1
1
1
1
1
1
1
1
1
1
1
1
1
1
1
1
1
1
1
1
1
1
1
1
1
1
1
1
1
1
1
1
1
1
1
1
1
1
1
1
1
1
1
1
1
1
0.999999
1
0.999996
1.00045
1.01026
1.12985
1.69448
2.9491
4.13416
4.3321
4.27002
4.34153
4.51662
4.65397
4.67556
4.67043
4.56835
4.44337
4.44433
1
1
1
1
1
1
1
1
1
1
1
1
1
1
1
1
1
1
1
1
1
1
1
1
1
1
1
1
1
1
1
1
1
1
1
1
1
1
1
1
1
1
1
1
1
1
1
1
1
1
1
1
1
1
1
1
1
1
1
1
1
1
1
0.999999
0.999998
1
1.00134
1.04595
1.38394
2.32567
3.66833
4.18818
4.27202
4.4131
4.61401
4.67582
4.67778
4.63473
4.47846
4.42803
1
1
1
1
1
1
1
1
1
1
1
1
1
1
1
1
1
1
1
1
1
1
1
1
1
1
1
1
1
1
1
1
1
1
1
1
1
1
1
1
1
1
1
1
1
1
1
1
1
1
1
1
1
1
1
1
1
1
1
1
1
1
1
1
1
1
0.999998
1.00026
1.01199
1.16124
1.82891
3.14278
3.90775
4.13809
4.40041
4.64996
4.69907
4.69442
4.61483
4.47024
1
1
1
1
1
1
1
1
1
1
1
1
1
1
1
1
1
1
1
1
1
1
1
1
1
1
1
1
1
1
1
1
1
1
1
1
1
1
1
1
1
1
1
1
1
1
1
1
1
1
1
1
1
1
1
1
1
1
1
1
1
1
1
1
1
1
1
0.999999
1.00002
1.00259
1.05731
1.42433
2.50457
3.64035
4.00994
4.34608
4.65267
4.69473
4.69319
4.59203
1
1
1
1
1
1
1
1
1
1
1
1
1
1
1
1
1
1
1
1
1
1
1
1
1
1
1
1
1
1
1
1
1
1
1
1
1
1
1
1
1
1
1
1
1
1
1
1
1
1
1
1
1
1
1
1
1
1
1
1
1
1
1
1
1
1
1
1
1
0.999998
1.00041
1.01667
1.19825
2.03397
3.27913
3.89507
4.36488
4.66698
4.68476
4.65225
1
1
1
1
1
1
1
1
1
1
1
1
1
1
1
1
1
1
1
1
1
1
1
1
1
1
1
1
1
1
1
1
1
1
1
1
1
1
1
1
1
1
1
1
1
1
1
1
1
1
1
1
1
1
1
1
1
1
1
1
1
1
1
1
1
1
1
1
1
1
0.999999
1.00006
1.00521
1.09544
1.70221
2.90164
3.72447
4.43738
4.66032
4.64967
1
1
1
1
1
1
1
1
1
1
1
1
1
1
1
1
1
1
1
1
1
1
1
1
1
1
1
1
1
1
1
1
1
1
1
1
1
1
1
1
1
1
1
1
1
1
1
1
1
1
1
1
1
1
1
1
1
1
1
1
1
1
1
1
1
1
1
1
1
1
1
1
1.00001
1.00186
1.04646
1.46183
2.51608
3.69452
4.48447
4.55785
1
1
1
1
1
1
1
1
1
1
1
1
1
1
1
1
1
1
1
1
1
1
1
1
1
1
1
1
1
1
1
1
1
1
1
1
1
1
1
1
1
1
1
1
1
1
1
1
1
1
1
1
1
1
1
1
1
1
1
1
1
1
1
1
1
1
1
1
1
1
1
1
1
1
1.0006
1.02348
1.3111
2.20093
3.57425
4.41026
1
1
1
1
1
1
1
1
1
1
1
1
1
1
1
1
1
1
1
1
1
1
1
1
1
1
1
1
1
1
1
1
1
1
1
1
1
1
1
1
1
1
1
1
1
1
1
1
1
1
1
1
1
1
1
1
1
1
1
1
1
1
1
1
1
1
1
1
1
1
1
1
1
1
1
1.00025
1.01244
1.19903
2.00673
3.68388
1
1
1
1
1
1
1
1
1
1
1
1
1
1
1
1
1
1
1
1
1
1
1
1
1
1
1
1
1
1
1
1
1
1
1
1
1
1
1
1
1
1
1
1
1
1
1
1
1
1
1
1
1
1
1
1
1
1
1
1
1
1
1
1
1
1
1
1
1
1
1
1
1
1
1
1
1.00009
1.00831
1.11665
2.48948
1
1
1
1
1
1
1
1
1
1
1
1
1
1
1
1
1
1
1
1
1
1
1
1
1
1
1
1
1
1
1
1
1
1
1
1
1
1
1
1
1
1
1
1
1
1
1
1
1
1
1
1
1
1
1
1
1
1
1
1
1
1
1
1
1
1
1
1
1
1
1
1
1
1
1
1
1
1.00007
1.00359
1.50078
1
1
1
1
1
1
1
1
1
1
1
1
1
1
1
1
1
1
1
1
1
1
1
1
1
1
1
1
1
1
1
1
1
1
1
1
1
1
1
1
1
1
1
1
1
1
1
1
1
1
1
1
1
1
1
1
1
1
1
1
1
1
1
1
1
1
1
1
1
1
1
1
1
1
1
1
1
1
1.00006
1.0873
1
1
1
1
1
1
1
1
1
1
1
1
1
1
1
1
1
1
1
1
1
1
1
1
1
1
1
1
1
1
1
1
1
1
1
1
1
1
1
1
1
1
1
1
1
1
1
1
1
1
1
1
1
1
1
1
1
1
1
1
1
1
1
1
1
1
1
1
1
1
1
1
1
1
1
1
1
1
1
1.00807
1
1
1
1
1
1
1
1
1
1
1
1
1
1
1
1
1
1
1
1
1
1
1
1
1
1
1
1
1
1
1
1
1
1
1
1
1
1
1
1
1
1
1
1
1
1
1
1
1
1
1
1
1
1
1
1
1
1
1
1
1
1
1
1
1
1
1
1
1
1
1
1
1
1
1
1
1
1
1
1.00048
1
1
1
1
1
1
1
1
1
1
1
1
1
1
1
1
1
1
1
1
1
1
1
1
1
1
1
1
1
1
1
1
1
1
1
1
1
1
1
1
1
1
1
1
1
1
1
1
1
1
1
1
1
1
1
1
1
1
1
1
1
1
1
1
1
1
1
1
1
1
1
1
1
1
1
1
1
1
1
1.00002
1
1
1
1
1
1
1
1
1
1
1
1
1
1
1
1
1
1
1
1
1
1
1
1
1
1
1
1
1
1
1
1
1
1
1
1
1
1
1
1
1
1
1
1
1
1
1
1
1
1
1
1
1
1
1
1
1
1
1
1
1
1
1
1
1
1
1
1
1
1
1
1
1
1
1
1
1
1
1
1
)
;

boundaryField
{
    inlet
    {
        type            fixedValue;
        value           uniform 1;
    }
    outlet
    {
        type            zeroGradient;
    }
    bottom
    {
        type            symmetryPlane;
    }
    top
    {
        type            symmetryPlane;
    }
    obstacle
    {
        type            zeroGradient;
    }
    defaultFaces
    {
        type            empty;
    }
}


// ************************************************************************* //
