/*--------------------------------*- C++ -*----------------------------------*\
| =========                 |                                                 |
| \\      /  F ield         | OpenFOAM: The Open Source CFD Toolbox           |
|  \\    /   O peration     | Version:  2206                                  |
|   \\  /    A nd           | Website:  www.openfoam.com                      |
|    \\/     M anipulation  |                                                 |
\*---------------------------------------------------------------------------*/
FoamFile
{
    version     2.0;
    format      ascii;
    arch        "LSB;label=32;scalar=64";
    class       volScalarField;
    location    "0.2";
    object      T;
}
// * * * * * * * * * * * * * * * * * * * * * * * * * * * * * * * * * * * * * //

dimensions      [0 0 0 1 0 0 0];

internalField   nonuniform List<scalar> 
4800
(
1
1
1
1
1
1
1
1
1
1
1
1
1
1
1
1
1
1
1
1
1
1
1
1
1
1
1
1
1
1
1
1
1
1
1
1
1
1
1
1
1
1
1
1
1
1
1
1
1
1
1
1
1
1
1
1
1
1
1
1
1
1
1
1
1
1
1
1
1
1
1
1
1
1
1
1
1
1
1
1
1
1
1
1
1
1
1
1
1
1
1
1
1
1
1
1
1
1
1
1
1
1
1
1
1
1
1
1
1
1
1
1
1
1
1
1
1
1
1
1
1
1
1
1
1
1
1
1
1
1
1
1
1
1
1
1
1
1
1
1
1
1
1
1
1
1
1
1
1
1
1
1
1
1
1
1
1
1
1
1
1
1
1
1
1
1
1
1
1
1
1
1
1
1
1
1
1
1
1
1
1
1
1
1
1
1
1
1
1
1
1
1
1
1
1
1
1
1
1
1
1
1
1
1
1
1
1
1
1
1
1
1
1
1
1
1
1
1
1
1
1
1
1
1
1
1
1
1
1
1
1
1
1
1
1
1
1
1
1
1
1
1
1
1
1
1
1
1
1
1
1
1
1
1
1
1
1
1
1
1
1
1
1
1
1
1
1
1
1
1
1
1
1
1
1
1
1
1
1
1
1
1
1
1
1
1
1
1
1
1
1
1
1
1
1
1
1
1
1
1
1
1
1
1
1
1
1
1
1
1
1
1
1
1
1
1
1
1
1
1
1
1
1
1
1
1
1
1
1
1
1
1
1
1
1
1
1
1
1
1
1
1
1
1
1
1
1
1
1
1
1
1
1
1
1
1
1
1
1
1
1
1
1
1
1
1
1
1
1
1
1
1
1
1
1
1
1
1
1
1
1
1
1
1
1
1
1
1
1
1
1
1
1
1
1
1
1
1
1
1
1
1
1
1
1
1
1
1
1
1
1
1
1
1
1
1
1
1
1
1
1
1
1
1
1
1
1
1
1
1
1
1
1
1
1
1
1
1
1
1
1
1
1
1
1
1
1
1
1
1
1
1
1
1
1
1
1
1
1
1
1
1
1
1
1
1
1
1
1
1
1
1
1
1
1
1
1
1
1
1
1
1
1
1
1
1
1
1
1
1
1
1
1
1
1
1
1
1
1
1
1
1
1
1
1
1
1
1
1
1
1
1
1
1
1
1
1
1
1
1
1
1
1
1
1
1
1
1
1
1
1
1
1
1
1
1
1
1
1
1
1
1
1
1
1
1
1
1
1
1
1
1
1
1
1
1
1
1
1
1
1
1
1
1
1
1
1
1
1
1
1
1
1
1
1
1
1
1
1
1
1
1
1
1
1
1
1
1
1
1
1
1
1
1
1
1
1
1
1
1
1
1
1
1
1
1
1
1
1
1
1
1
1
1
1
1
1
1
1
1
1
1
1
1
1
1
1
1
1
1
1
1
1
1
1
1
1
1
1
1
1
1
1
1
1
1
1
1
1
1
1
1
1
1
1
1
1
1
1
1
1
1
1
1
1
1
1
1
1
1
1
1
1
1
1
1
1
1
1
1
1
1
1
1
1
1
1
1
1
1
1
1
1
1
1
1
1
1
1
1
1
1
1
1
1
1
1
1
1
1
1
1
1
1
1
1
1
1
1
1
1
1
1
1
1
1
1
1
1
1
1
1
1
1
1
1
1
1
1
1
1
1
1
1
1
1
1
1
1
1
1
1
1
1
1
1
1
1
1
1
1
1
1
1
1
1
1
1
1
1
1
1
1
1
1
1
1
1
1
1
1
1
1
1
1
1
1
1
1
1
1
1
1
1
1
1
1
1
1
1
1
1
1
1
1
1
1
1
1
1
1
1
1
1
1
1
1
1
1
1
1
1
1
1
1
1
1
1
1
1
1
1
1
1
1
1
1
1
1
1
1
1
1
1
1
1
1
1
1
1
1
1
1
1
1
1
1
1
1
1
1
1
1
1
1
1
1
1
1
1
1
1
1
1
1
1
1
1
1
1
1
1
1
1
1
1
1
1
1
1
1
1
1
1
1
1
1
1
1
1
1
1
1
1
1
1
1
1
1
1
1
1
1
1
1
1
1
1
1
1
1
1
1
1
1
1
1
1
1
1
1
1
1
1
1
1
1
1
1
1
1
1
1
1
1
1
1
1
1
1
1
1
1
1
1
1
1
1
1
1
1
1
1
1
1
1
1
1
1
1
1
1
1
1
1
1
1
1
1
1
1
1
1
1
1
1
1
1
1
1
1
1
1
1
1
1
1
1
1
1
1
1
1
1
1
1
1
1
1
1
1
1
1
1
1
1
1
1
1
1
1
1
1
1
1
1
1
1
1
1
1
1
1
1
1
1
1
1
1
1
1
1
1
1
1
1
1
1
1
1
1
1
1
1
1
1
1
1
1
1
1
1
1
1
1
1
1
1
1
1
1
1
1
1
1
1
1
1
1
1
1
1
1
1
1
1
1
1
1
1
1
1
1
1
1
1
1
1
1
1
1
1
1
1
1
1
1
1
1
1
1
1
1
1
1
1
1
1
1
1
1
1
1
1
1
1
1
1
1
1
1
1
1
1
1
1
1
1
1
1
1
1
1
1
1
1
1
1
1
1
1
1
1
1
1
1
1
1
1
1
1
1
1
1
1
1
1
1
1
1
1
1
1
1
1
1
1
1
1
1
1
1
1
1
1
1
1
1
1
1
1
1
1
1
1
1
1
1
1
1
1
1
1
1
1
1
1
1
1
1
1
1
1
1
1
1
1
1
1
1
1
1
1
1
1
1
1
1
1
1
1
1
1
1
1
1
1
1
1
1
1
1
1
1
1
1
1
1
1
1
1
1
1
1
1
1
1
1
1
1
1
1
1
1
1
1
1
1
1
1
1
1
1
1
1
1
1
1
1
1
1
1
1
1
1
1
1
1
1
1
1
1
1
1
1
1
1
1
1
1
1
1
1
1
1
1
1
1
1
1
1
1
1
1
1
1
1
1
1
1
1
1
1
1
1
1
1
1
1
1
1
1
1
1
1
1
1
1
1
1
1
1
1
1
1
1
1
1
1
1
1
1
1
1
1
1
1
1
1
1
1
1
1
1
1
1
1
1
1
1
1
1
1
1
1
1
1
1
1
1
1
1
1
1
1
1
1
1
1
1
1
1
1
1
1
1
1
1
1
1
1
1
1
1
1
1
1
1
1
1
1
1
1
1
1
1
1
1
1
1
1
1
1
1
1
1
1
1
1
1
1
1
1
1
1
1
1
1
1
1
1
1
1
1
1
1
1
1
1
1
1
1
1
1
1
1
1
1
1
1
1
1
1
1
1
1
1
1
1
1
1
1
1
1
1
1
1
1
1
1
1
1
1
1
1
1
1
1
1
1
1
1
1
1
1
1
1
1
1
1
1
1
1
1
1
1
1
1
1
1
1
1
1
1
1
1
1
1
1
1
1
1
1
1
1
1
1
1
1
1
1
1
1
1
1
1
1
1
1
1
1
1
1
1
1
1
1
1
1
1
1
1
1
1
1
1
1
1
1
1
1
1
1
1
1
1
1
1
1
1
1
1
1
1
1
1
1
1
1
1
1
1
1
1
1
1
1
1
1
1
1
1
1
1
1
1
1
1
1
1
1.07012
1.16184
1.25574
1.34832
1.45794
1.55957
1.62827
1.69548
1.80293
1.91088
1.95241
1.97816
2.02488
2.08056
2.09074
2.08316
2.07083
2.05533
2.02931
1.98322
1.91979
1.87478
1.85842
1.83913
1.81246
1.81275
1.81842
1.82277
1.82231
1.82472
1.83172
1.84814
1.86587
1.86972
1.8668
1.8599
1.85639
1.8574
1.8612
1.86497
1.87252
1.88234
1.88613
1.8863
1.88417
1.87676
1.86896
1.86675
1.86701
1.87017
1.877
1.8841
1.8878
1.88856
1.88769
1.88506
1.88177
1.87699
1.87256
1.87085
1.87108
1.87411
1.88198
1.89042
1.8954
1.89627
1.89501
1.88988
1.88034
1.87187
1.86912
1.8692
1.87194
1.879
1.88942
1.89732
1.90041
1.90068
1.89923
1.89313
1
1
0.999993
0.999794
0.999032
1.02163
1.09971
1.14696
1.1931
1.30192
1.43101
1.49028
1.53182
1.62194
1.69214
1.72831
1.76602
1.80224
1.81988
1.83136
1.86878
1.91304
1.92817
1.92433
1.90856
1.89836
1.89747
1.89295
1.88133
1.87155
1.8638
1.8649
1.86724
1.86691
1.86401
1.86361
1.86573
1.86998
1.87257
1.87335
1.87488
1.87887
1.88397
1.88531
1.88501
1.88251
1.88066
1.88089
1.88194
1.8834
1.88317
1.88281
1.88319
1.88579
1.888
1.88847
1.88753
1.88666
1.88605
1.88476
1.88286
1.88239
1.88308
1.8842
1.88806
1.89222
1.89289
1.89097
1.8871
1.88532
1.88387
1.88354
1.88531
1.88799
1.88904
1.88936
1.8906
1.89122
1.8919
1.89233
1
1
1
1
1
0.999999
1
1
1
1
0.99934
1.00603
1.02062
1.07485
1.21044
1.31193
1.43556
1.59965
1.75162
1.88624
1.94493
2.01745
2.01951
2.01197
1.99721
1.98447
1.97409
1.96274
1.94632
1.91497
1.89343
1.88711
1.8846
1.88407
1.88488
1.88805
1.89285
1.89751
1.89719
1.89642
1.89535
1.89499
1.89496
1.8946
1.89484
1.89847
1.90186
1.90358
1.90477
1.90452
1.90231
1.89727
1.89342
1.89265
1.89364
1.89806
1.90277
1.90445
1.90452
1.90391
1.90133
1.89671
1.89258
1.89127
1.89089
1.89129
1.89474
1.89996
1.90319
1.90367
1.90385
1.90367
1.90252
1.90082
1.89844
1.89471
1.89066
1.88818
1.8876
1.89199
1
1
1
1
1
1
1
1
1
1
1
1
1
1
1
0.999569
1.0006
1.03386
1.13035
1.34804
1.54855
1.71769
1.86222
1.90541
1.9458
1.97265
1.97003
1.96546
1.9664
1.96622
1.96104
1.95276
1.94286
1.93477
1.93423
1.93773
1.93616
1.93072
1.92177
1.91347
1.90775
1.90541
1.90611
1.90833
1.9116
1.91886
1.92812
1.93342
1.93442
1.933
1.9262
1.91476
1.90795
1.9071
1.90741
1.91046
1.91777
1.92511
1.92741
1.92707
1.92385
1.91676
1.90884
1.90398
1.90212
1.90184
1.90302
1.9081
1.91665
1.92257
1.92373
1.92289
1.91979
1.91485
1.90704
1.89942
1.89566
1.89514
1.89536
1.89947
1
1
1
1
1
1
1
1
1
1
1
1
1
1
1
1
1
1
1
0.99942
1.00639
1.04112
1.20219
1.42869
1.57674
1.72702
1.83131
1.94633
2.0156
2.02389
2.02076
2.01313
2.00283
1.98902
1.97767
1.96626
1.9552
1.94751
1.9436
1.93951
1.93332
1.92807
1.92649
1.92644
1.92779
1.93395
1.94373
1.95039
1.95141
1.95012
1.94474
1.93494
1.9302
1.92952
1.9285
1.9284
1.93128
1.93783
1.9434
1.94456
1.94316
1.93655
1.92711
1.92148
1.91961
1.91904
1.91894
1.9199
1.92367
1.93009
1.93561
1.93707
1.93567
1.92966
1.92238
1.91701
1.91236
1.91021
1.91008
1.91254
1
1
1
1
1
1
1
1
1
1
1
1
1
1
1
1
1
1
1
1
1
1
1
0.999472
1.00665
1.07868
1.26565
1.45008
1.643
1.76849
1.89856
1.94669
1.96138
1.95846
1.9431
1.94574
1.96079
1.96483
1.97076
1.97121
1.96733
1.96048
1.95117
1.94057
1.93648
1.93723
1.93985
1.94404
1.94831
1.94972
1.94959
1.95087
1.95201
1.9513
1.94725
1.94353
1.94247
1.94312
1.9456
1.94808
1.94876
1.94879
1.94827
1.94661
1.94373
1.94077
1.93751
1.93611
1.93582
1.93556
1.93562
1.93695
1.93892
1.93967
1.93867
1.93559
1.93369
1.93123
1.92906
1.92849
1
1
1
1
1
1
1
1
1
1
1
1
1
1
1
1
1
1
1
1
1
1
1
1
1
1
0.999779
0.999951
1.0402
1.15001
1.31214
1.52251
1.6796
1.81239
1.87647
1.92641
1.96011
1.96983
1.9756
1.97888
1.97812
1.97329
1.96191
1.94431
1.9374
1.93749
1.93874
1.94092
1.94234
1.94471
1.95065
1.95789
1.96126
1.96137
1.95802
1.95001
1.94579
1.94421
1.94333
1.94354
1.94566
1.95182
1.95851
1.96154
1.96281
1.96269
1.95982
1.95147
1.94509
1.94085
1.93813
1.93739
1.93786
1.9423
1.94853
1.95067
1.95132
1.95153
1.95116
1.94704
1
1
1
1
1
1
1
1
1
1
1
1
1
1
1
1
1
1
1
1
1
1
1
1
1
1
1
1
1
1
0.999418
1.0162
1.0706
1.18529
1.42104
1.60043
1.74959
1.81942
1.86475
1.90331
1.92785
1.94509
1.95041
1.95013
1.94679
1.94387
1.94269
1.93937
1.93643
1.93713
1.94255
1.95201
1.95689
1.95732
1.95748
1.95594
1.94882
1.9434
1.94138
1.94107
1.94171
1.94441
1.95246
1.96298
1.96686
1.96705
1.96635
1.96339
1.9529
1.94335
1.9402
1.94005
1.94085
1.94298
1.94859
1.95644
1.96017
1.96051
1.96047
1.95685
1
1
1
1
1
1
1
1
1
1
1
1
1
1
1
1
1
1
1
1
1
1
1
1
1
1
1
1
1
1
1
1
1
0.999637
1.00431
1.03285
1.13459
1.35652
1.51352
1.63768
1.74099
1.8547
1.92782
1.94115
1.94394
1.94276
1.94051
1.93435
1.92363
1.9209
1.9227
1.93007
1.94105
1.94582
1.94761
1.95065
1.95382
1.9529
1.94752
1.93971
1.93674
1.93778
1.94163
1.94883
1.95751
1.96306
1.9639
1.96251
1.9606
1.95526
1.94787
1.94365
1.94322
1.9454
1.94782
1.94964
1.95361
1.95747
1.95976
1.95833
1
1
1
1
1
1
1
1
1
1
1
1
1
1
1
1
1
1
1
1
1
1
1
1
1
1
1
1
1
1
1
1
1
1
1
1
0.999791
1.00156
1.01209
1.08607
1.2719
1.44765
1.6301
1.73421
1.83225
1.89506
1.91017
1.91186
1.90993
1.90808
1.90735
1.91186
1.92099
1.92718
1.93326
1.93986
1.9442
1.94692
1.94752
1.94579
1.93846
1.93212
1.93196
1.93453
1.93834
1.94266
1.94798
1.95219
1.95322
1.95337
1.9551
1.95517
1.95395
1.95126
1.94774
1.94697
1.94769
1.94886
1.94971
1.95087
1
1
1
1
1
1
1
1
1
1
1
1
1
1
1
1
1
1
1
1
1
1
1
1
1
1
1
1
1
1
1
1
1
1
1
1
1
1
1
1
0.999837
1.00711
1.09126
1.25568
1.4134
1.58464
1.71165
1.84893
1.88743
1.90154
1.90278
1.90146
1.89716
1.89582
1.89891
1.91132
1.92876
1.93732
1.93709
1.93686
1.938
1.93758
1.93242
1.92647
1.9246
1.92518
1.92701
1.92944
1.93456
1.94421
1.95101
1.95558
1.95878
1.95894
1.95615
1.94702
1.93904
1.93768
1.93776
1.94046
1
1
1
1
1
1
1
1
1
1
1
1
1
1
1
1
1
1
1
1
1
1
1
1
1
1
1
1
1
1
1
1
1
1
1
1
1
1
1
1
1
1
1
0.999827
1.00645
1.08113
1.21581
1.41472
1.60791
1.74297
1.84436
1.87559
1.87204
1.87783
1.87607
1.87725
1.89047
1.91068
1.92175
1.92664
1.9291
1.93027
1.93151
1.93077
1.92579
1.91738
1.91328
1.91515
1.91923
1.92424
1.93436
1.94729
1.95246
1.95302
1.95206
1.94896
1.9399
1.9318
1.92954
1.93285
1
1
1
1
1
1
1
1
1
1
1
1
1
1
1
1
1
1
1
1
1
1
1
1
1
1
1
1
1
1
1
1
1
1
1
1
1
1
1
1
1
1
1
1
1
0.999998
0.999756
1.01106
1.11553
1.24687
1.43714
1.60443
1.77241
1.85596
1.86751
1.86651
1.87223
1.87109
1.87594
1.89121
1.9082
1.91925
1.92254
1.92192
1.92265
1.92465
1.92222
1.91306
1.90822
1.90926
1.91508
1.92313
1.93197
1.93801
1.94013
1.93833
1.93524
1.93516
1.93387
1.93422
1
1
1
1
1
1
1
1
1
1
1
1
1
1
1
1
1
1
1
1
1
1
1
1
1
1
1
1
1
1
1
1
1
1
1
1
1
1
1
1
1
1
1
1
1
1
1
1
0.999976
1.00011
1.01759
1.10857
1.28384
1.50367
1.68063
1.82252
1.85848
1.85503
1.85763
1.85757
1.86497
1.8808
1.90128
1.91153
1.91621
1.91988
1.92145
1.92062
1.91567
1.90906
1.90682
1.90772
1.91112
1.91246
1.91414
1.91723
1.9231
1.92714
1.93134
1.93665
1
1
1
1
1
1
1
1
1
1
1
1
1
1
1
1
1
1
1
1
1
1
1
1
1
1
1
1
1
1
1
1
1
1
1
1
1
1
1
1
1
1
1
1
1
1
1
1
1
1
1
0.999843
1.00179
1.04812
1.17433
1.39014
1.56897
1.74564
1.84469
1.85516
1.8555
1.86158
1.86558
1.87337
1.88792
1.90313
1.91232
1.91326
1.91066
1.91105
1.91261
1.91217
1.90635
1.90107
1.90064
1.90174
1.90503
1.91387
1.92603
1.93303
1
1
1
1
1
1
1
1
1
1
1
1
1
1
1
1
1
1
1
1
1
1
1
1
1
1
1
1
1
1
1
1
1
1
1
1
1
1
1
1
1
1
1
1
1
1
1
1
1
1
1
0.999999
0.999994
1.00003
1.00011
1.01179
1.08073
1.25179
1.50063
1.6852
1.80931
1.86236
1.85904
1.85934
1.85896
1.86366
1.8754
1.89125
1.90271
1.90798
1.91204
1.91605
1.91667
1.912
1.90027
1.89356
1.89389
1.90004
1.91066
1.92062
1
1
1
1
1
1
1
1
1
1
1
1
1
1
1
1
1
1
1
1
1
1
1
1
1
1
1
1
1
1
1
1
1
1
1
1
1
1
1
1
1
1
1
1
1
1
1
1
1
1
1
1
1
1
1
1.00001
0.999939
1.0019
1.04888
1.18865
1.3986
1.61142
1.79985
1.87157
1.8725
1.86519
1.85666
1.85641
1.8666
1.88652
1.90331
1.91191
1.91354
1.91285
1.90916
1.90259
1.89651
1.89608
1.90111
1.91018
1
1
1
1
1
1
1
1
1
1
1
1
1
1
1
1
1
1
1
1
1
1
1
1
1
1
1
1
1
1
1
1
1
1
1
1
1
1
1
1
1
1
1
1
1
1
1
1
1
1
1
1
1
1
1
1
0.999999
0.999999
0.999969
1.00066
1.02092
1.12025
1.36089
1.60423
1.77605
1.85711
1.86493
1.86616
1.86349
1.86442
1.87255
1.88546
1.89761
1.90315
1.90284
1.89954
1.89875
1.9016
1.90858
1.90958
1
1
1
1
1
1
1
1
1
1
1
1
1
1
1
1
1
1
1
1
1
1
1
1
1
1
1
1
1
1
1
1
1
1
1
1
1
1
1
1
1
1
1
1
1
1
1
1
1
1
1
1
1
1
1
1
1
1
0.999999
0.999999
0.999978
1.00018
1.01304
1.12275
1.31002
1.54589
1.74074
1.8642
1.88666
1.88385
1.87839
1.87386
1.87375
1.87862
1.88382
1.88833
1.89564
1.90252
1.9088
1.90922
1
1
1
1
1
1
1
1
1
1
1
1
1
1
1
1
1
1
1
1
1
1
1
1
1
1
1
1
1
1
1
1
1
1
1
1
1
1
1
1
1
1
1
1
1
1
1
1
1
1
1
1
1
1
1
1
1
1
1
1
0.999999
0.999999
0.99998
1.00028
1.00786
1.09028
1.2798
1.56732
1.77275
1.88515
1.89443
1.89148
1.88738
1.87738
1.87711
1.87922
1.88426
1.89011
1.89849
1.90387
1
1
1
1
1
1
1
1
1
1
1
1
1
1
1
1
1
1
1
1
1
1
1
1
1
1
1
1
1
1
1
1
1
1
1
1
1
1
1
1
1
1
1
1
1
1
1
1
1
1
1
1
1
1
1
1
1
1
1
1
1
1
0.999999
0.999999
0.999985
1.00018
1.00694
1.11637
1.33923
1.61721
1.78255
1.86002
1.88776
1.89815
1.89832
1.8937
1.8896
1.89137
1.89314
1.89169
1
1
1
1
1
1
1
1
1
1
1
1
1
1
1
1
1
1
1
1
1
1
1
1
1
1
1
1
1
1
1
1
1
1
1
1
1
1
1
1
1
1
1
1
1
1
1
1
1
1
1
1
1
1
1
1
1
1
1
1
1
1
1
1
0.999999
0.999999
0.999985
1.0006
1.01199
1.15956
1.40625
1.60092
1.74726
1.87038
1.90627
1.90453
1.90639
1.9111
1.91184
1.89982
1
1
1
1
1
1
1
1
1
1
1
1
1
1
1
1
1
1
1
1
1
1
1
1
1
1
1
1
1
1
1
1
1
1
1
1
1
1
1
1
1
1
1
1
1
1
1
1
1
1
1
1
1
1
1
1
1
1
1
1
1
1
1
1
1
1
0.999999
0.999999
0.999985
1.00174
1.0195
1.16247
1.42188
1.67414
1.81795
1.85928
1.88331
1.90493
1.90749
1.90261
1
1
1
1
1
1
1
1
1
1
1
1
1
1
1
1
1
1
1
1
1
1
1
1
1
1
1
1
1
1
1
1
1
1
1
1
1
1
1
1
1
1
1
1
1
1
1
1
1
1
1
1
1
1
1
1
1
1
1
1
1
1
1
1
1
1
1
1
0.999999
0.999999
0.99999
1.00261
1.03635
1.22623
1.58076
1.7909
1.8321
1.86249
1.88796
1.88924
1
1
1
1
1
1
1
1
1
1
1
1
1
1
1
1
1
1
1
1
1
1
1
1
1
1
1
1
1
1
1
1
1
1
1
1
1
1
1
1
1
1
1
1
1
1
1
1
1
1
1
1
1
1
1
1
1
1
1
1
1
1
1
1
1
1
1
1
1
1
0.999999
0.999995
1.00007
1.00824
1.10193
1.43238
1.68865
1.83127
1.87558
1.87275
1
1
1
1
1
1
1
1
1
1
1
1
1
1
1
1
1
1
1
1
1
1
1
1
1
1
1
1
1
1
1
1
1
1
1
1
1
1
1
1
1
1
1
1
1
1
1
1
1
1
1
1
1
1
1
1
1
1
1
1
1
1
1
1
1
1
1
1
1
1
1
1
0.999999
0.999998
1.00105
1.05163
1.25156
1.51065
1.74526
1.87301
1
1
1
1
1
1
1
1
1
1
1
1
1
1
1
1
1
1
1
1
1
1
1
1
1
1
1
1
1
1
1
1
1
1
1
1
1
1
1
1
1
1
1
1
1
1
1
1
1
1
1
1
1
1
1
1
1
1
1
1
1
1
1
1
1
1
1
1
1
1
1
1
1
1
0.999998
1.0003
1.00803
1.09413
1.29867
1.75478
1
1
1
1
1
1
1
1
1
1
1
1
1
1
1
1
1
1
1
1
1
1
1
1
1
1
1
1
1
1
1
1
1
1
1
1
1
1
1
1
1
1
1
1
1
1
1
1
1
1
1
1
1
1
1
1
1
1
1
1
1
1
1
1
1
1
1
1
1
1
1
1
1
1
0.999999
1
0.999995
1.00093
1.01511
1.49023
1
1
1
1
1
1
1
1
1
1
1
1
1
1
1
1
1
1
1
1
1
1
1
1
1
1
1
1
1
1
1
1
1
1
1
1
1
1
1
1
1
1
1
1
1
1
1
1
1
1
1
1
1
1
1
1
1
1
1
1
1
1
1
1
1
1
1
1
1
1
1
1
1
1
1
1
0.999999
0.999998
1.00018
1.11569
1
1
1
1
1
1
1
1
1
1
1
1
1
1
1
1
1
1
1
1
1
1
1
1
1
1
1
1
1
1
1
1
1
1
1
1
1
1
1
1
1
1
1
1
1
1
1
1
1
1
1
1
1
1
1
1
1
1
1
1
1
1
1
1
1
1
1
1
1
1
1
1
1
1
1
1
1
1
1
1.00656
1
1
1
1
1
1
1
1
1
1
1
1
1
1
1
1
1
1
1
1
1
1
1
1
1
1
1
1
1
1
1
1
1
1
1
1
1
1
1
1
1
1
1
1
1
1
1
1
1
1
1
1
1
1
1
1
1
1
1
1
1
1
1
1
1
1
1
1
1
1
1
1
1
1
1
1
1
1
1
1.00011
1
1
1
1
1
1
1
1
1
1
1
1
1
1
1
1
1
1
1
1
1
1
1
1
1
1
1
1
1
1
1
1
1
1
1
1
1
1
1
1
1
1
1
1
1
1
1
1
1
1
1
1
1
1
1
1
1
1
1
1
1
1
1
1
1
1
1
1
1
1
1
1
1
1
1
1
1
1
1
1
1
1
1
1
1
1
1
1
1
1
1
1
1
1
1
1
1
1
1
1
1
1
1
1
1
1
1
1
1
1
1
1
1
1
1
1
1
1
1
1
1
1
1
1
1
1
1
1
1
1
1
1
1
1
1
1
1
1
1
1
1
1
1
1
1
1
1
1
1
1
1
1
1
1
1
1
1
1
1
1
1
1
1
1
1
1
1
1
1
1
1
1
1
1
1
1
1
1
1
1
1
1
1
1
1
1
1
1
1
1
1
1
1
1
1
1
1
1
1
1
1
1
1
1
1
1
1
1
1
1
1
1
1
1
1
1
1
1
1
1
1
1
1
1
1
1
1
1
1
1
1
1
1
1
1
1
1
1
1
1
1
1
1
1
1
1
1
1
1
1
1
1
1
1
1
1
1
1
1
1
1
1
1
1
1
1
1
1
1
1
1
1
1
1
1
1
1
1
1
1
1
1
1
1
1
1
1
1
1
1
1
1
1
1
1
1
1
1
1
1
1
1
1
1
1
1
1
1
1
1
1
1
1
1
1
1
1
1
1
1
1
1
1
1
1
1
1
1
1
1
1
1
1
1
1
1
1
1
1
1
1
1
1
1
1
1
1
1
1
1
1
1
1
1
1
1
1
1
1
1
1
1
1
1
1
1
1
1
1
1
1
1
1
1
1
1
1
1
1
1
1
1
1
1
1
1
1
1
1
1
1
1
1
1
1
1
1
1
1
1
1
1
1
1
1
1
1
1
1
1
1
1
1
1
1
1
1
1
1
1
1
1
1
1
1
1
1
1
1
1
1
1
1
1
1
1
1
1
1
1
1
1
1
1
1
1
1
1
1
1
1
1
1
1
1
1
1
1
1
1
1
1
1
1
1
1
1
1
1
1
1
1
1
1
1
1
1
1
1
1
1
1
1
1
1
1
1
1
1
1
1
1
1
1
1
1
1
1
1
1
1
1
1
1
1
1
1
1
1
1
1
1
1
1
1
1
1
1
1
1
1
1
1
1
1
1
1
1
1
1
1
1
1
1
1
1
1
1
1
1
1
1
1
1
1
1
1
1
1
1
1
1
1
1
1
1
1
1
1
1
1
1
1
1
1
1
1
1
1
1
1
1
1
1
1
1
1
1
1
1
1
1
1
1
1
1
1
1
1
1
1
1
1
1
1
1
1
1
1
1
1
1
1
1
1
1
1
1
1
1
1
1
1
1
1
1
1
1
1
1
1
1
1
1
1
1
1
1
1
1
1
1
1
1
1
1
1
1
1
1
1
1
1
1
1
1
1
1
1
1
1
1
1
1
1
1
1
1
1
1
1
1
1
1
1
1
1
1
1
1
1
1
1
1
1
1
1
1
1
1
1
1
1
1
1
1
1
1
1
1
1
1
1
1
1
1
1
1
1
1
1
1
1
1
1
1
1
1
1
1
1
1
1
1
1
1
1
1
1
1
)
;

boundaryField
{
    inlet
    {
        type            fixedValue;
        value           uniform 1;
    }
    outlet
    {
        type            zeroGradient;
    }
    bottom
    {
        type            symmetryPlane;
    }
    top
    {
        type            symmetryPlane;
    }
    obstacle
    {
        type            zeroGradient;
    }
    defaultFaces
    {
        type            empty;
    }
}


// ************************************************************************* //
