/*--------------------------------*- C++ -*----------------------------------*\
| =========                 |                                                 |
| \\      /  F ield         | OpenFOAM: The Open Source CFD Toolbox           |
|  \\    /   O peration     | Version:  2206                                  |
|   \\  /    A nd           | Website:  www.openfoam.com                      |
|    \\/     M anipulation  |                                                 |
\*---------------------------------------------------------------------------*/
FoamFile
{
    version     2.0;
    format      ascii;
    arch        "LSB;label=32;scalar=64";
    class       volVectorField;
    location    "0.08";
    object      U;
}
// * * * * * * * * * * * * * * * * * * * * * * * * * * * * * * * * * * * * * //

dimensions      [0 1 -1 0 0 0 0];

internalField   nonuniform List<vector> 
4800
(
(5.34343 -3.86067e-15 0)
(5.34343 1.11653e-14 0)
(5.34343 3.5026e-14 0)
(5.34343 2.57478e-14 0)
(5.34343 2.21672e-14 0)
(5.34343 5.42627e-14 0)
(5.34343 1.02041e-13 0)
(5.34343 8.7145e-14 0)
(5.34343 4.95386e-14 0)
(5.34343 6.17007e-14 0)
(5.34343 9.49697e-14 0)
(5.34343 7.91937e-14 0)
(5.34343 5.97737e-14 0)
(5.34343 8.69217e-14 0)
(5.34343 1.24118e-13 0)
(5.34343 6.26575e-14 0)
(5.34343 4.6088e-14 0)
(5.34343 4.81883e-14 0)
(5.34343 3.98469e-14 0)
(5.34343 2.96718e-14 0)
(5.34343 1.64328e-14 0)
(5.34343 4.86617e-14 0)
(5.34343 1.29666e-13 0)
(5.34343 2.08433e-13 0)
(5.34343 1.29022e-13 0)
(5.34343 6.90486e-14 0)
(5.34343 5.64264e-14 0)
(5.34343 3.15354e-14 0)
(5.34343 -4.10504e-14 0)
(5.34343 -1.40158e-14 0)
(5.34343 -4.0507e-15 0)
(5.34343 4.16405e-15 0)
(5.34343 -2.36407e-14 0)
(5.34343 -2.73314e-14 0)
(5.34343 -2.85583e-14 0)
(5.34343 4.13871e-14 0)
(5.34343 5.93736e-14 0)
(5.34343 7.98705e-14 0)
(5.34343 5.16056e-14 0)
(5.34343 -1.38224e-14 0)
(5.34343 -8.19475e-15 0)
(5.34343 2.24339e-14 0)
(5.34343 6.64481e-14 0)
(5.34343 6.24808e-14 0)
(5.34343 8.03005e-14 0)
(5.34343 1.3795e-13 0)
(5.34343 2.01068e-13 0)
(5.34343 1.84952e-13 0)
(5.34343 1.39371e-13 0)
(5.34343 1.00291e-13 0)
(5.34343 1.05222e-13 0)
(5.34343 1.26368e-13 0)
(5.34343 1.12279e-13 0)
(5.34343 1.26882e-13 0)
(5.34343 1.09616e-13 0)
(5.34343 1.02241e-13 0)
(5.34343 1.1371e-13 0)
(5.34343 1.49663e-13 0)
(5.34343 1.66482e-13 0)
(5.34343 1.52836e-13 0)
(5.34343 1.23178e-13 0)
(5.34343 7.23758e-14 0)
(5.34343 7.09856e-14 0)
(5.34343 1.27469e-13 0)
(5.34343 1.90736e-13 0)
(5.34343 2.15637e-13 0)
(5.34343 1.67229e-13 0)
(5.34343 3.39792e-14 0)
(5.34343 -7.46162e-14 0)
(5.34343 -1.15573e-13 0)
(5.34343 -8.45913e-14 0)
(5.34343 -5.81767e-15 0)
(5.34343 6.96787e-15 0)
(5.34343 2.97118e-14 0)
(5.34343 7.46196e-14 0)
(5.34343 1.30863e-13 0)
(5.34343 1.88873e-13 0)
(5.34343 2.16914e-13 0)
(5.34343 2.39421e-13 0)
(5.34343 8.63825e-15 0)
(5.34343 1.66362e-14 0)
(5.34343 2.02202e-14 0)
(5.34343 2.01001e-14 0)
(5.34343 6.28575e-14 0)
(5.34343 8.24309e-14 0)
(5.34343 4.05437e-14 0)
(5.34343 -2.05702e-15 0)
(5.34343 2.66679e-14 0)
(5.34343 6.69982e-14 0)
(5.34343 4.18606e-14 0)
(5.34343 4.37542e-14 0)
(5.34343 1.03828e-13 0)
(5.34343 1.3273e-13 0)
(5.34343 1.1494e-13 0)
(5.34343 2.97451e-14 0)
(5.34343 3.01052e-14 0)
(5.34343 9.79736e-14 0)
(5.34343 1.98714e-13 0)
(5.34343 2.12567e-13 0)
(5.34343 1.81595e-13 0)
(5.34343 1.68289e-13 0)
(5.34343 9.16525e-14 0)
(5.34343 4.07204e-14 0)
(5.34343 4.27007e-14 0)
(5.34343 5.69498e-14 0)
(5.34343 1.07572e-13 0)
(5.34343 1.12919e-13 0)
(5.34343 4.38976e-14 0)
(5.34343 -6.39277e-14 0)
(5.34343 -7.42161e-14 0)
(5.34343 -7.3346e-14 0)
(5.34343 -7.26192e-14 0)
(5.34343 -5.53729e-14 0)
(5.34343 -6.22274e-14 0)
(5.34343 -5.70432e-14 0)
(5.34343 -5.67631e-14 0)
(5.34343 -7.35227e-14 0)
(5.34343 -7.78601e-14 0)
(5.34343 -5.70098e-14 0)
(5.34343 -4.19713e-14 0)
(5.34343 9.48497e-15 0)
(5.34343 -6.5878e-15 0)
(5.34343 -2.62679e-14 0)
(5.34343 -2.18704e-14 0)
(5.34343 -2.47743e-14 0)
(5.34343 -5.29925e-14 0)
(5.34343 -1.1775e-13 0)
(5.34343 -1.02178e-13 0)
(5.34343 -6.33276e-14 0)
(5.34343 9.91505e-15 0)
(5.34343 3.26823e-14 0)
(5.34343 1.06252e-14 0)
(5.34343 -1.32123e-14 0)
(5.34343 -1.85299e-14 0)
(5.34343 2.25372e-14 0)
(5.34343 3.95802e-14 0)
(5.34343 5.15022e-14 0)
(5.34343 6.67482e-14 0)
(5.34343 7.15123e-14 0)
(5.34343 8.2921e-14 0)
(5.34343 6.7845e-14 0)
(5.34343 2.88483e-14 0)
(5.34343 -1.65695e-14 0)
(5.34343 -6.9712e-15 0)
(5.34343 -1.48126e-14 0)
(5.34343 -1.28689e-15 0)
(5.34343 6.10305e-14 0)
(5.34343 5.29325e-14 0)
(5.34343 3.69897e-14 0)
(5.34343 1.96267e-14 0)
(5.34343 -1.24588e-14 0)
(5.34343 -7.15657e-14 0)
(5.34343 -5.15256e-14 0)
(5.34343 -1.7263e-14 0)
(5.34343 -1.37967e-13 0)
(5.34343 -2.98525e-13 0)
(5.34343 -3.16821e-13 0)
(5.34343 -2.91327e-13 0)
(5.34343 -2.44392e-13 0)
(5.34343 -2.39611e-13 0)
(5.34343 1.26689e-16 0)
(5.34343 -8.77818e-15 0)
(5.34343 -5.23424e-15 0)
(5.34343 -3.21022e-14 0)
(5.34343 -4.41476e-14 0)
(5.34343 -2.8675e-14 0)
(5.34343 -5.57763e-15 0)
(5.34343 2.01701e-15 0)
(5.34343 2.87583e-14 0)
(5.34343 3.69764e-14 0)
(5.34343 3.84066e-15 0)
(5.34343 -1.29922e-14 0)
(5.34343 -4.18072e-15 0)
(5.34343 -1.01084e-14 0)
(5.34343 -4.26974e-14 0)
(5.34343 -8.25042e-14 0)
(5.34343 -7.07456e-14 0)
(5.34343 -3.96235e-14 0)
(5.34343 -2.24739e-14 0)
(5.34343 -3.20389e-15 0)
(5.34343 -2.48776e-14 0)
(5.34343 -9.05956e-14 0)
(5.34343 -8.91854e-14 0)
(5.34343 -8.70984e-14 0)
(5.34343 -5.34192e-14 0)
(5.34343 8.41779e-14 0)
(5.34343 1.26559e-13 0)
(5.34343 1.16957e-13 0)
(5.34343 8.79185e-14 0)
(5.34343 6.5578e-14 0)
(5.34343 3.0872e-14 0)
(5.34343 9.01822e-15 0)
(5.34343 1.73863e-14 0)
(5.34343 3.33291e-14 0)
(5.34343 2.34541e-14 0)
(5.34343 -7.46596e-14 0)
(5.34343 -8.72817e-14 0)
(5.34343 -9.91971e-14 0)
(5.34343 -7.04855e-14 0)
(5.34343 -1.04909e-13 0)
(5.34343 2.82382e-15 0)
(5.34343 5.12088e-15 0)
(5.34343 -9.50831e-15 0)
(5.34343 4.06737e-15 0)
(5.34343 3.00619e-14 0)
(5.34343 5.10521e-14 0)
(5.34343 9.02389e-14 0)
(5.34343 8.05606e-14 0)
(5.34343 5.00953e-14 0)
(5.34343 1.7553e-14 0)
(5.34343 9.56832e-16 0)
(5.34343 3.00385e-15 0)
(5.34343 7.94137e-15 0)
(5.34343 -4.06737e-15 0)
(5.34343 -4.80816e-14 0)
(5.34343 -8.1344e-14 0)
(5.34343 -1.07982e-13 0)
(5.34343 -9.77102e-14 0)
(5.34343 -7.09356e-14 0)
(5.34343 -6.42611e-14 0)
(5.34343 -4.31008e-14 0)
(5.34343 -5.54529e-14 0)
(5.34343 -8.51947e-14 0)
(5.34343 -1.28886e-13 0)
(5.34343 -1.02954e-13 0)
(5.34343 -6.99788e-15 0)
(5.34343 5.91769e-15 0)
(5.34343 2.20905e-14 0)
(5.34343 9.93071e-14 0)
(5.34343 1.54137e-13 0)
(5.34343 1.45488e-13 0)
(5.34343 2.15571e-14 0)
(5.34343 -3.65963e-14 0)
(5.34343 -2.99052e-14 0)
(5.34343 1.00084e-14 0)
(5.34343 5.4046e-14 0)
(5.34343 1.1747e-13 0)
(5.34343 1.19224e-13 0)
(5.34343 1.07018e-13 0)
(5.34343 9.57616e-14 0)
(5.34343 -2.23672e-14 0)
(5.34343 -1.72696e-14 0)
(5.34343 -1.21788e-14 0)
(5.34343 -4.34075e-15 0)
(5.34343 8.68817e-15 0)
(5.34343 -2.11703e-15 0)
(5.34343 -8.46146e-15 0)
(5.34343 -4.0287e-14 0)
(5.34343 -4.0557e-14 0)
(5.34343 -3.99569e-14 0)
(5.34343 -2.93051e-14 0)
(5.34343 -6.2004e-14 0)
(5.34343 -1.48849e-13 0)
(5.34343 -1.22411e-13 0)
(5.34343 -8.22375e-14 0)
(5.34343 -7.24425e-14 0)
(5.34343 -8.41112e-14 0)
(5.34343 -1.06585e-13 0)
(5.34343 -9.68834e-14 0)
(5.34343 -1.02801e-13 0)
(5.34343 -7.60698e-14 0)
(5.34343 -2.68846e-14 0)
(5.34343 -8.53314e-14 0)
(5.34343 -1.07715e-13 0)
(5.34343 -6.26275e-14 0)
(5.34343 -1.66362e-14 0)
(5.34343 1.05485e-14 0)
(5.34343 1.15013e-13 0)
(5.34343 1.82795e-13 0)
(5.34343 1.43608e-13 0)
(5.34343 7.86202e-14 0)
(5.34343 2.82182e-14 0)
(5.34343 -2.06702e-15 0)
(5.34343 5.82767e-15 0)
(5.34343 2.52177e-14 0)
(5.34343 4.82083e-14 0)
(5.34343 1.1454e-13 0)
(5.34343 1.43898e-13 0)
(5.34343 1.03671e-13 0)
(5.34343 5.35167e-14 0)
(5.34343 2.04702e-15 0)
(5.34343 -1.54693e-15 0)
(5.34343 -4.0407e-15 0)
(5.34343 -2.72114e-14 0)
(5.34343 -1.1511e-13 0)
(5.34343 -1.80178e-13 0)
(5.34343 -1.80211e-13 0)
(5.34343 -1.28466e-13 0)
(5.34343 -1.03921e-13 0)
(5.34343 -1.29449e-13 0)
(5.34343 -1.29729e-13 0)
(5.34343 -1.16263e-13 0)
(5.34343 -1.14997e-13 0)
(5.34343 -1.21958e-13 0)
(5.34343 -1.11609e-13 0)
(5.34343 -9.82603e-14 0)
(5.34343 -7.02621e-14 0)
(5.34343 -5.4166e-14 0)
(5.34343 -7.06622e-14 0)
(5.34343 -4.13171e-14 0)
(5.34343 -3.14588e-14 0)
(5.34343 -3.12321e-14 0)
(5.34343 -5.56429e-15 0)
(5.34343 8.65283e-14 0)
(5.34343 4.95286e-14 0)
(5.34343 -7.96804e-16 0)
(5.34343 1.3459e-14 0)
(5.34343 1.53527e-14 0)
(5.34343 -2.06402e-14 0)
(5.34343 -4.55979e-14 0)
(5.34343 9.92171e-15 0)
(5.34343 9.86504e-14 0)
(5.34343 1.32056e-13 0)
(5.34343 9.23893e-14 0)
(5.34343 8.33711e-14 0)
(5.34343 1.1586e-13 0)
(5.34343 1.35417e-13 0)
(5.34343 1.1359e-13 0)
(5.34343 3.64763e-14 0)
(5.34343 4.21237e-14 0)
(5.34343 4.93419e-15 0)
(5.34343 5.87768e-15 0)
(5.34343 -2.42042e-15 0)
(5.34343 1.89266e-14 0)
(5.34343 -1.29656e-14 0)
(5.34343 -6.68115e-14 0)
(5.34343 -7.30593e-14 0)
(5.34343 -7.88736e-14 0)
(5.34343 -1.20071e-13 0)
(5.34343 -1.20587e-13 0)
(5.34343 -1.15053e-13 0)
(5.34343 -8.1104e-14 0)
(5.34343 -7.73334e-14 0)
(5.34343 -1.07145e-13 0)
(5.34343 -1.06622e-13 0)
(5.34343 -8.51014e-14 0)
(5.34343 -8.00071e-14 0)
(5.34343 -6.0117e-14 0)
(5.34343 -3.93068e-14 0)
(5.34343 -2.6938e-14 0)
(5.34343 7.15457e-15 0)
(5.34343 -2.09603e-14 0)
(5.34343 -1.52626e-14 0)
(5.34343 4.56412e-15 0)
(5.34343 -2.79048e-15 0)
(5.34343 -4.33908e-14 0)
(5.34343 -1.18871e-13 0)
(5.34343 -1.30293e-13 0)
(5.34343 -1.37544e-13 0)
(5.34343 -1.27719e-13 0)
(5.34343 -1.30786e-13 0)
(5.34343 9.33495e-15 0)
(5.34343 3.56962e-14 0)
(5.34343 2.3044e-14 0)
(5.34343 1.76064e-14 0)
(5.34343 4.22073e-14 0)
(5.34343 6.07372e-14 0)
(5.34343 -4.76682e-14 0)
(5.34343 -2.14114e-13 0)
(5.34343 -1.58818e-13 0)
(5.34343 8.00138e-16 0)
(5.34343 -3.05053e-15 0)
(5.34343 8.93488e-16 0)
(5.34343 3.16955e-14 0)
(5.34343 9.15491e-14 0)
(5.34343 9.2426e-14 0)
(5.34343 7.35194e-14 0)
(5.34343 1.3589e-14 0)
(5.34343 -4.30341e-14 0)
(5.34343 -6.99854e-14 0)
(5.34343 -8.61215e-14 0)
(5.34343 -1.40078e-13 0)
(5.34343 -1.97677e-13 0)
(5.34343 -2.05732e-13 0)
(5.34343 -1.75207e-13 0)
(5.34343 -1.70813e-13 0)
(5.34343 -1.67182e-13 0)
(5.34343 -1.29142e-13 0)
(5.34343 -6.60414e-14 0)
(5.34343 -3.11154e-14 0)
(5.34343 -1.58894e-14 0)
(5.34343 -6.48312e-14 0)
(5.34343 -1.26589e-13 0)
(5.34343 -1.60968e-13 0)
(5.34343 -1.66099e-13 0)
(5.34343 -1.38661e-13 0)
(5.34343 -1.42998e-13 0)
(5.34343 -1.60374e-13 0)
(5.34343 -1.89853e-13 0)
(5.34343 -1.39457e-13 0)
(5.34343 -7.65532e-14 0)
(5.34343 -2.38608e-14 0)
(5.34343 2.43542e-14 0)
(5.34343 3.24623e-14 0)
(5.34343 -5.95736e-14 0)
(5.34343 -9.16658e-14 0)
(5.34343 -1.05352e-13 0)
(5.34343 -1.13026e-13 0)
(5.34343 -1.38981e-13 0)
(5.34343 -1.61927e-13 0)
(5.34343 -1.60694e-15 0)
(5.34343 -1.51059e-14 0)
(5.34343 1.41691e-15 0)
(5.34343 -2.80382e-15 0)
(5.34343 2.02868e-14 0)
(5.34343 6.00504e-14 0)
(5.34343 5.88168e-14 0)
(5.34343 4.04437e-14 0)
(5.34343 -5.15989e-14 0)
(5.34343 -6.27375e-14 0)
(5.34343 -6.07238e-14 0)
(5.34343 -5.66131e-14 0)
(5.34343 -5.83101e-14 0)
(5.34343 -4.85217e-14 0)
(5.34343 -5.51562e-14 0)
(5.34343 -6.47045e-14 0)
(5.34343 -7.26259e-14 0)
(5.34343 -7.29259e-14 0)
(5.34343 -7.3416e-14 0)
(5.34343 -7.39828e-14 0)
(5.34343 -1.03895e-13 0)
(5.34343 -1.10626e-13 0)
(5.34343 -1.39324e-13 0)
(5.34343 -1.1412e-13 0)
(5.34343 -1.172e-13 0)
(5.34343 -1.1448e-13 0)
(5.34343 -1.13656e-13 0)
(5.34343 -1.59051e-13 0)
(5.34343 -1.48552e-13 0)
(5.34343 -9.27093e-14 0)
(5.34343 -1.94767e-14 0)
(5.34343 1.77297e-14 0)
(5.34343 1.23255e-14 0)
(5.34343 -2.83882e-14 0)
(5.34343 -9.07457e-14 0)
(5.34343 -1.31436e-13 0)
(5.34343 -3.6553e-14 0)
(5.34343 4.28007e-14 0)
(5.34343 7.16557e-14 0)
(5.34343 2.42597e-14 0)
(5.34343 -5.24091e-15 0)
(5.34343 1.1862e-14 0)
(5.34343 5.73099e-14 0)
(5.34343 6.88852e-14 0)
(5.34343 1.68662e-14 0)
(5.34343 -4.40309e-14 0)
(5.34343 -9.19125e-14 0)
(5.34343 -4.91952e-14 0)
(5.34343 -2.86249e-14 0)
(5.34343 1.60294e-14 0)
(5.34343 3.90867e-14 0)
(5.34343 5.32425e-14 0)
(5.34343 5.4136e-14 0)
(5.34343 4.05803e-14 0)
(5.34343 6.17107e-15 0)
(5.34343 -6.40111e-15 0)
(5.34343 -3.59462e-14 0)
(5.34343 -3.89701e-14 0)
(5.34343 -6.35943e-14 0)
(5.34343 -4.41343e-14 0)
(5.34343 -4.42276e-14 0)
(5.34343 -1.29622e-14 0)
(5.34343 2.13037e-14 0)
(5.34343 1.48392e-14 0)
(5.34343 5.0342e-15 0)
(5.34343 -5.0312e-14 0)
(5.34343 -1.00461e-13 0)
(5.34343 -1.26989e-13 0)
(5.34343 -5.27624e-14 0)
(5.34343 2.6788e-14 0)
(5.34343 2.33107e-14 0)
(5.34343 -2.96785e-14 0)
(5.34343 -8.5058e-14 0)
(5.34343 -7.66799e-14 0)
(5.34343 -3.64196e-14 0)
(5.34343 6.84452e-15 0)
(5.34343 4.20006e-14 0)
(5.34343 9.38262e-14 0)
(5.34343 7.98971e-14 0)
(5.34343 4.56993e-14 0)
(5.34343 1.5336e-16 0)
(5.34343 3.54728e-15 0)
(5.34343 -1.72263e-14 0)
(5.34343 -3.99169e-14 0)
(5.34343 -5.82401e-14 0)
(5.34343 -5.39993e-14 0)
(5.34343 1.27655e-14 0)
(5.34343 1.45925e-14 0)
(5.34343 6.06305e-14 0)
(5.34343 1.05282e-13 0)
(5.34343 1.03938e-13 0)
(5.34343 1.18437e-13 0)
(5.34343 1.3654e-13 0)
(5.34343 1.56134e-13 0)
(5.34343 1.68886e-13 0)
(5.34343 1.40728e-13 0)
(5.34343 6.75817e-14 0)
(5.34343 2.70447e-14 0)
(5.34343 4.27807e-14 0)
(5.34343 1.08292e-13 0)
(5.34343 1.46559e-13 0)
(5.34343 1.86736e-13 0)
(5.34343 1.90206e-13 0)
(5.34343 1.38124e-13 0)
(5.34343 5.52762e-14 0)
(5.34343 4.94719e-14 0)
(5.34343 2.75314e-14 0)
(5.34343 4.85917e-14 0)
(5.34343 5.15122e-14 0)
(5.34343 1.03131e-13 0)
(5.34343 1.23578e-13 0)
(5.34343 7.72867e-14 0)
(5.34343 -2.50577e-14 0)
(5.34343 -7.75534e-14 0)
(5.34343 -7.3346e-14 0)
(5.34343 2.1007e-14 0)
(5.34343 4.33075e-15 0)
(5.34343 -1.95e-14 0)
(5.34343 -7.08122e-15 0)
(5.34343 -3.14832e-15 0)
(5.34343 1.48092e-14 0)
(5.34343 2.82715e-15 0)
(5.34343 -2.45209e-14 0)
(5.34343 -2.01501e-14 0)
(5.34343 2.64179e-14 0)
(5.34343 9.11924e-14 0)
(5.34343 1.46442e-13 0)
(5.34343 1.61801e-13 0)
(5.34343 1.77554e-13 0)
(5.34343 2.37164e-13 0)
(5.34343 2.37124e-13 0)
(5.34343 2.3441e-13 0)
(5.34343 2.47736e-13 0)
(5.34343 2.32487e-13 0)
(5.34343 2.25426e-13 0)
(5.34343 2.30083e-13 0)
(5.34343 1.98164e-13 0)
(5.34343 1.55917e-13 0)
(5.34343 1.48172e-13 0)
(5.34343 1.17697e-13 0)
(5.34343 1.49769e-13 0)
(5.34343 2.07863e-13 0)
(5.34343 2.46756e-13 0)
(5.34343 2.65669e-13 0)
(5.34343 1.95587e-13 0)
(5.34343 1.47966e-13 0)
(5.34343 1.39391e-13 0)
(5.34343 1.46569e-13 0)
(5.34343 1.20334e-13 0)
(5.34343 7.79001e-14 0)
(5.34343 8.77218e-14 0)
(5.34343 5.797e-14 0)
(5.34343 2.80982e-14 0)
(5.34343 -2.97351e-14 0)
(5.34343 -3.73598e-14 0)
(5.34343 4.10738e-14 0)
(5.34343 9.8577e-14 0)
(5.34343 1.48072e-13 0)
(5.34343 1.49699e-13 0)
(5.34343 1.98846e-13 0)
(5.34343 -2.81382e-15 0)
(5.34343 -1.94034e-15 0)
(5.34343 -3.2739e-15 0)
(5.34343 5.68098e-15 0)
(5.34343 2.49943e-14 0)
(5.34343 4.64213e-14 0)
(5.34343 4.67981e-14 0)
(5.34343 6.91619e-14 0)
(5.34343 6.74016e-14 0)
(5.34343 3.58662e-14 0)
(5.34343 1.12386e-13 0)
(5.34343 1.3593e-13 0)
(5.34343 1.31186e-13 0)
(5.34343 1.21161e-13 0)
(5.34343 7.93437e-14 0)
(5.34343 1.30683e-13 0)
(5.34343 1.94414e-13 0)
(5.34343 2.49906e-13 0)
(5.34343 2.27726e-13 0)
(5.34343 2.01531e-13 0)
(5.34343 1.7363e-13 0)
(5.34343 8.40645e-14 0)
(5.34343 7.05455e-14 0)
(5.34343 4.81316e-14 0)
(5.34343 1.26392e-13 0)
(5.34343 1.7533e-13 0)
(5.34343 2.37411e-13 0)
(5.34343 9.17859e-14 0)
(5.34343 1.48992e-14 0)
(5.34343 -1.47492e-14 0)
(5.34343 -2.28373e-14 0)
(5.34343 -3.50361e-14 0)
(5.34343 -4.66047e-14 0)
(5.34343 -7.13323e-14 0)
(5.34343 -5.75566e-14 0)
(5.34343 -8.43479e-16 0)
(5.34343 4.82383e-14 0)
(5.34343 8.03905e-14 0)
(5.34343 8.82452e-14 0)
(5.34343 1.43511e-13 0)
(5.34343 -6.32443e-15 0)
(5.34343 1.23688e-15 0)
(5.34343 1.73697e-15 0)
(5.34343 4.95419e-15 0)
(5.34343 -1.08185e-14 0)
(5.34343 1.16887e-14 0)
(5.34343 3.25156e-14 0)
(5.34343 2.43209e-14 0)
(5.34343 -1.18187e-14 0)
(5.34343 -7.05422e-14 0)
(5.34343 -3.89334e-14 0)
(5.34343 1.73797e-14 0)
(5.34343 1.3599e-14 0)
(5.34343 2.48143e-14 0)
(5.34343 1.01574e-13 0)
(5.34343 1.522e-13 0)
(5.34343 2.17984e-13 0)
(5.34343 2.09043e-13 0)
(5.34343 1.68016e-13 0)
(5.34343 1.60008e-13 0)
(5.34343 1.47472e-13 0)
(5.34343 1.20441e-13 0)
(5.34343 1.12839e-13 0)
(5.34343 1.20167e-13 0)
(5.34343 1.34823e-13 0)
(5.34343 1.25772e-13 0)
(5.34343 8.55814e-14 0)
(5.34343 7.72433e-14 0)
(5.34343 3.38492e-14 0)
(5.34343 6.5468e-14 0)
(5.34343 7.84836e-14 0)
(5.34343 7.12723e-14 0)
(5.34343 4.67147e-14 0)
(5.34343 4.32241e-14 0)
(5.34343 6.9482e-14 0)
(5.34343 -3.31957e-14 0)
(5.34343 -9.61366e-14 0)
(5.34343 -1.03201e-13 0)
(5.34343 -8.46613e-14 0)
(5.34343 -7.32976e-14 0)
(5.34343 7.23458e-15 0)
(5.34343 2.63746e-14 0)
(5.34343 8.56248e-14 0)
(5.34343 7.48263e-14 0)
(5.34343 4.53878e-14 0)
(5.34343 1.26422e-14 0)
(5.34343 2.25139e-14 0)
(5.34343 -2.07369e-15 0)
(5.34343 -2.67046e-15 0)
(5.34343 -2.27273e-14 0)
(5.34343 -2.86483e-14 0)
(5.34343 -2.01201e-14 0)
(5.34343 3.42759e-14 0)
(5.34343 2.40175e-14 0)
(5.34343 -2.80048e-15 0)
(5.34343 -4.72415e-15 0)
(5.34343 2.42108e-14 0)
(5.34343 -1.34023e-14 0)
(5.34343 -2.23005e-14 0)
(5.34343 -4.28107e-14 0)
(5.34343 -3.88167e-14 0)
(5.34343 -1.90033e-16 0)
(5.34343 5.27458e-14 0)
(5.34343 1.17087e-13 0)
(5.34343 9.18192e-14 0)
(5.34343 -3.04653e-14 0)
(5.34343 -3.06386e-14 0)
(5.34343 6.5378e-15 0)
(5.34343 5.72032e-14 0)
(5.34343 1.3703e-13 0)
(5.34343 1.3537e-13 0)
(5.34343 1.45182e-13 0)
(5.34343 1.87732e-13 0)
(5.34343 2.08053e-13 0)
(5.34343 1.83338e-13 0)
(5.34343 6.43778e-14 0)
(5.34343 -7.31793e-15 0)
(5.34343 -5.97103e-15 0)
(5.34343 -3.19188e-14 0)
(5.34343 -9.95759e-15 0)
(5.34343 -2.17371e-15 0)
(5.34343 5.44094e-15 0)
(5.34343 -6.64448e-15 0)
(5.34343 -2.17538e-14 0)
(5.34343 -3.60229e-14 0)
(5.34343 -8.88053e-14 0)
(5.34343 -7.52197e-14 0)
(5.34343 -5.66631e-14 0)
(5.34343 -2.06369e-14 0)
(5.34343 -1.01184e-14 0)
(5.34343 -2.72614e-14 0)
(5.34343 -8.15074e-14 0)
(5.34343 -9.33295e-14 0)
(5.34343 -8.13874e-14 0)
(5.34343 -8.02272e-14 0)
(5.34343 -6.69516e-14 0)
(5.34343 -8.3091e-14 0)
(5.34343 -8.69383e-14 0)
(5.34343 -5.15289e-14 0)
(5.34343 -2.12637e-14 0)
(5.34343 -1.58627e-14 0)
(5.34343 6.11439e-15 0)
(5.34343 -2.61812e-14 0)
(5.34343 -4.11304e-14 0)
(5.34343 -3.61096e-14 0)
(5.34343 7.02788e-15 0)
(5.34343 1.19954e-14 0)
(5.34343 -4.79183e-14 0)
(5.34343 -5.34526e-14 0)
(5.34343 -4.67281e-14 0)
(5.34343 -1.10636e-13 0)
(5.34343 -5.08288e-14 0)
(5.34343 1.87916e-13 0)
(5.34343 2.40568e-13 0)
(5.34343 2.41152e-13 0)
(5.34343 2.08133e-13 0)
(5.34343 1.96564e-13 0)
(5.34343 1.9072e-13 0)
(5.34343 1.67699e-13 0)
(5.34343 1.6277e-13 0)
(5.34343 -1.01284e-14 0)
(5.34343 -2.15237e-14 0)
(5.34343 -9.69867e-14 0)
(5.34343 -9.18992e-14 0)
(5.34343 -5.88668e-14 0)
(5.34343 -3.72298e-14 0)
(5.34343 -2.17371e-14 0)
(5.34343 2.33407e-14 0)
(5.34343 5.54729e-14 0)
(5.34343 2.94984e-14 0)
(5.34343 -6.77717e-14 0)
(5.34343 -1.59728e-13 0)
(5.34343 -1.70519e-13 0)
(5.34343 -1.1299e-13 0)
(5.34343 -6.96254e-14 0)
(5.34343 -1.01151e-13 0)
(5.34343 -1.80061e-13 0)
(5.34343 -1.726e-13 0)
(5.34343 -1.1343e-13 0)
(5.34343 -9.57365e-14 0)
(5.34343 -1.22168e-13 0)
(5.34343 -1.28516e-13 0)
(5.34343 -7.82102e-14 0)
(5.34343 -3.56428e-14 0)
(5.34343 -3.14554e-14 0)
(5.34343 -4.61013e-14 0)
(5.34343 -8.1324e-14 0)
(5.34343 3.74065e-15 0)
(5.34343 1.37724e-14 0)
(5.34343 -1.63762e-14 0)
(5.34343 -7.37527e-14 0)
(5.34343 -5.84701e-14 0)
(5.34343 6.28075e-14 0)
(5.34343 1.30846e-13 0)
(5.34343 2.15467e-13 0)
(5.34343 2.62359e-13 0)
(5.34343 2.28233e-13 0)
(5.34343 2.06249e-13 0)
(5.34343 1.99888e-13 0)
(5.34343 1.54306e-13 0)
(5.34343 1.80031e-15 0)
(5.34343 -1.08219e-14 0)
(5.34343 -1.06252e-14 0)
(5.34343 -4.6608e-15 0)
(5.34343 -1.18687e-15 0)
(5.34343 4.0487e-14 0)
(5.34343 6.41211e-14 0)
(5.34343 5.81034e-14 0)
(5.34343 2.62345e-14 0)
(5.34343 2.51443e-14 0)
(5.34343 3.57228e-14 0)
(5.34343 2.98652e-14 0)
(5.34343 -4.4521e-14 0)
(5.34343 -7.86703e-14 0)
(5.34343 -9.46597e-14 0)
(5.34343 -1.22221e-13 0)
(5.34343 -1.26295e-13 0)
(5.34343 -1.19887e-13 0)
(5.34343 -1.02388e-13 0)
(5.34343 -8.54848e-14 0)
(5.34343 -5.55329e-14 0)
(5.34343 4.87084e-15 0)
(5.34343 4.12605e-14 0)
(5.34343 4.59379e-14 0)
(5.34343 3.31757e-14 0)
(5.34343 -3.11187e-14 0)
(5.34343 -6.29642e-14 0)
(5.34343 -2.06602e-14 0)
(5.34343 5.0042e-14 0)
(5.34343 4.69248e-14 0)
(5.34343 1.44025e-15 0)
(5.34343 -1.63328e-14 0)
(5.34343 4.59946e-14 0)
(5.34343 1.33976e-13 0)
(5.34343 1.19244e-13 0)
(5.34343 1.09632e-13 0)
(5.34343 8.97155e-14 0)
(5.34343 2.81615e-14 0)
(5.34343 -9.93505e-15 0)
(5.34343 2.08815e-14 0)
(5.34343 7.69133e-15 0)
(5.34343 4.65514e-14 0)
(5.34343 6.27142e-14 0)
(5.34343 3.11454e-14 0)
(5.34343 4.6368e-14 0)
(5.34343 8.8682e-14 0)
(5.34343 1.04195e-13 0)
(5.34343 6.5818e-14 0)
(5.34343 3.34658e-14 0)
(5.34343 4.8085e-14 0)
(5.34343 6.79317e-14 0)
(5.34343 7.3466e-14 0)
(5.34343 4.93052e-14 0)
(5.34343 3.11054e-15 0)
(5.34343 -2.13704e-15 0)
(5.34343 1.09786e-14 0)
(5.34343 2.05869e-14 0)
(5.34343 5.64898e-14 0)
(5.34343 2.47676e-14 0)
(5.34343 3.75398e-15 0)
(5.34343 5.55496e-14 0)
(5.34343 8.59548e-14 0)
(5.34343 6.53313e-14 0)
(5.34343 -1.58594e-14 0)
(5.34343 -3.93335e-14 0)
(5.34343 -2.38975e-14 0)
(5.34343 1.87499e-14 0)
(5.34343 3.18822e-14 0)
(5.34343 7.02888e-14 0)
(5.34343 6.92053e-14 0)
(5.34343 5.14722e-14 0)
(5.34343 1.23655e-14 0)
(5.34343 9.78469e-14 0)
(5.34343 7.5233e-14 0)
(5.34343 -1.5466e-14 0)
(5.34343 -2.46209e-14 0)
(5.34343 -2.85916e-14 0)
(5.34343 -3.19589e-14 0)
(5.34343 4.28074e-15 0)
(5.34343 1.39821e-14 0)
(5.34343 7.92804e-15 0)
(5.34343 1.51426e-14 0)
(5.34343 3.24623e-14 0)
(5.34343 2.85916e-14 0)
(5.34343 2.43642e-14 0)
(5.34343 8.55481e-15 0)
(5.34343 -6.14739e-14 0)
(5.34343 -1.11023e-13 0)
(5.34343 -8.40345e-14 0)
(5.34343 -5.09755e-14 0)
(5.34343 -3.49794e-14 0)
(5.34343 -2.73714e-15 0)
(5.34343 4.36575e-14 0)
(5.34343 5.89135e-14 0)
(5.34343 1.47999e-13 0)
(5.34343 1.94134e-13 0)
(5.34343 1.86005e-13 0)
(5.34343 1.68239e-13 0)
(5.34343 1.37777e-13 0)
(5.34343 1.31646e-13 0)
(5.34343 1.3264e-13 0)
(5.34343 9.93505e-14 0)
(5.34343 4.52111e-14 0)
(5.34343 -1.908e-14 0)
(5.34343 -9.25326e-14 0)
(5.34343 -6.75783e-14 0)
(5.34343 8.93554e-14 0)
(5.34343 1.59381e-13 0)
(5.34343 2.04875e-13 0)
(5.34343 1.24792e-13 0)
(5.34343 1.47859e-14 0)
(5.34343 6.99454e-15 0)
(5.34343 1.32856e-14 0)
(5.34343 -8.14807e-15 0)
(5.34343 -2.44242e-14 0)
(5.34343 -6.84552e-14 0)
(5.34343 -8.31144e-14 0)
(5.34343 -6.71049e-14 0)
(5.34343 -6.7375e-14 0)
(5.34343 -7.64776e-14 0)
(5.34343 2.7238e-15 0)
(5.34343 5.88435e-15 0)
(5.34343 2.79848e-14 0)
(5.34343 3.52728e-14 0)
(5.34343 5.17089e-15 0)
(5.34343 -6.00937e-14 0)
(5.34343 -1.43718e-13 0)
(5.34343 -1.43538e-13 0)
(5.34343 -1.24942e-13 0)
(5.34343 -7.80535e-14 0)
(5.34343 -2.3084e-14 0)
(5.34343 4.70014e-14 0)
(5.34343 4.06404e-14 0)
(5.34343 8.23876e-14 0)
(5.34343 1.29506e-13 0)
(5.34343 1.54567e-13 0)
(5.34343 1.86906e-13 0)
(5.34343 9.624e-14 0)
(5.34343 6.75783e-14 0)
(5.34343 1.11026e-13 0)
(5.34343 1.53643e-13 0)
(5.34343 1.82081e-13 0)
(5.34343 1.70123e-13 0)
(5.34343 1.00607e-13 0)
(5.34343 7.17824e-14 0)
(5.34343 7.16857e-14 0)
(5.34343 1.24381e-13 0)
(5.34343 1.34203e-13 0)
(5.34343 3.0932e-14 0)
(5.34343 -7.59464e-15 0)
(5.34343 -1.02428e-13 0)
(5.34343 -1.35507e-13 0)
(5.34343 -1.27899e-13 0)
(5.34343 -1.06528e-13 0)
(5.34343 -1.66832e-13 0)
(5.34343 -1.97961e-13 0)
(5.34343 -1.80091e-13 0)
(5.34343 -1.69246e-13 0)
(5.34343 -1.72847e-13 0)
(5.34343 -1.77888e-13 0)
(5.34343 -4.78416e-15 0)
(5.34343 -1.52193e-14 0)
(5.34343 -4.6538e-14 0)
(5.34343 -5.9617e-14 0)
(5.34343 -8.30943e-14 0)
(5.34343 -7.11556e-14 0)
(5.34343 1.39257e-14 0)
(5.34343 5.08655e-14 0)
(5.34343 2.69613e-14 0)
(5.34343 4.30774e-14 0)
(5.34343 6.13273e-14 0)
(5.34343 5.76666e-14 0)
(5.34343 3.95102e-14 0)
(5.34343 4.27974e-14 0)
(5.34343 1.67396e-14 0)
(5.34343 -2.8685e-14 0)
(5.34343 -3.12154e-14 0)
(5.34343 -4.51878e-14 0)
(5.34343 -6.06338e-14 0)
(5.34343 -5.26724e-14 0)
(5.34343 -4.30908e-14 0)
(5.34343 6.93853e-14 0)
(5.34343 1.21838e-13 0)
(5.34343 1.32843e-13 0)
(5.34343 1.04671e-13 0)
(5.34343 9.36195e-14 0)
(5.34343 2.81215e-14 0)
(5.34343 -6.10272e-14 0)
(5.34343 -9.55732e-14 0)
(5.34343 -1.20434e-13 0)
(5.34343 -1.55173e-13 0)
(5.34343 -1.81948e-13 0)
(5.34343 -2.56831e-13 0)
(5.34343 -3.26793e-13 0)
(5.34343 -2.76501e-13 0)
(5.34343 -2.49293e-13 0)
(5.34343 -1.50999e-13 0)
(5.34343 -1.1424e-13 0)
(5.34343 -9.11991e-14 0)
(5.34343 -7.37992e-14 0)
(5.34343 2.35374e-15 0)
(5.34343 -2.94184e-14 0)
(5.34343 -7.05422e-14 0)
(5.34343 -4.14105e-14 0)
(5.34343 -2.42042e-15 0)
(5.34343 3.50527e-14 0)
(5.34343 1.02221e-13 0)
(5.34343 1.06072e-13 0)
(5.34343 5.72666e-14 0)
(5.34343 6.22741e-14 0)
(5.34343 8.56948e-14 0)
(5.34343 9.71801e-14 0)
(5.34343 7.17757e-14 0)
(5.34343 5.61364e-14 0)
(5.34343 5.08888e-14 0)
(5.34343 1.86232e-14 0)
(5.34343 -2.46643e-14 0)
(5.34343 -3.22756e-14 0)
(5.34343 -3.13321e-14 0)
(5.34343 -4.69281e-14 0)
(5.34343 -7.94104e-14 0)
(5.34343 -9.10691e-14 0)
(5.34343 3.14054e-14 0)
(5.34343 2.37498e-13 0)
(5.34343 2.86803e-13 0)
(5.34343 2.12363e-13 0)
(5.34343 8.6695e-14 0)
(5.34343 6.64215e-14 0)
(5.34343 -1.29756e-14 0)
(5.34343 -5.83334e-14 0)
(5.34343 -5.48961e-14 0)
(5.34343 -7.01955e-14 0)
(5.34343 -1.70226e-13 0)
(5.34343 -2.7232e-13 0)
(5.34343 -2.50357e-13 0)
(5.34343 -1.80908e-13 0)
(5.34343 -1.43015e-13 0)
(5.34343 -5.50995e-14 0)
(5.34343 -7.08556e-14 0)
(5.34343 -1.1476e-13 0)
(5.34343 -5.07421e-15 0)
(5.34343 2.11737e-14 0)
(5.34343 4.02003e-14 0)
(5.34343 5.789e-14 0)
(5.34343 1.21648e-13 0)
(5.34343 1.1381e-13 0)
(5.34343 8.54381e-14 0)
(5.34343 3.868e-14 0)
(5.34343 2.60678e-14 0)
(5.34343 4.2674e-15 0)
(5.34343 3.19055e-15 0)
(5.34343 -1.30756e-14 0)
(5.34343 -1.03995e-13 0)
(5.34343 -1.21848e-13 0)
(5.34343 -1.1405e-13 0)
(5.34343 -9.637e-14 0)
(5.34343 -8.65116e-14 0)
(5.34343 -6.84418e-14 0)
(5.34343 -2.3384e-14 0)
(5.34343 -1.58561e-14 0)
(5.34343 -4.2314e-14 0)
(5.34343 -8.41345e-14 0)
(5.34343 -9.0609e-14 0)
(5.34343 9.49497e-15 0)
(5.34343 1.00497e-13 0)
(5.34343 1.1305e-13 0)
(5.34343 8.58582e-14 0)
(5.34343 8.24076e-14 0)
(5.34343 7.29093e-14 0)
(5.34343 7.03521e-14 0)
(5.34343 6.70949e-14 0)
(5.34343 8.0974e-14 0)
(5.34343 4.18872e-14 0)
(5.34343 -2.55911e-14 0)
(5.34343 -6.7525e-14 0)
(5.34343 -9.55465e-14 0)
(5.34343 -1.42528e-13 0)
(5.34343 -1.5695e-13 0)
(5.34343 -1.81378e-13 0)
(5.34343 -1.72501e-13 0)
(5.34343 -1.40291e-14 0)
(5.34343 1.38891e-14 0)
(5.34343 1.47025e-14 0)
(5.34343 -1.03618e-14 0)
(5.34343 -2.2904e-14 0)
(5.34343 -3.33291e-14 0)
(5.34343 -5.82467e-14 0)
(5.34343 -5.78133e-14 0)
(5.34343 -1.02864e-13 0)
(5.34343 -1.72116e-13 0)
(5.34343 -2.35397e-13 0)
(5.34343 -2.27339e-13 0)
(5.34343 -2.17004e-13 0)
(5.34343 -2.25082e-13 0)
(5.34343 -1.36487e-13 0)
(5.34343 -8.48947e-14 0)
(5.34343 -6.50379e-14 0)
(5.34343 -3.884e-14 0)
(5.34343 -2.98885e-14 0)
(5.34343 -2.81782e-14 0)
(5.34343 -3.56061e-14 0)
(5.34343 -8.94288e-14 0)
(5.34343 -1.33706e-13 0)
(5.34343 -1.60451e-13 0)
(5.34343 -1.1674e-13 0)
(5.34343 -6.12372e-14 0)
(5.34343 -4.03136e-14 0)
(5.34343 2.3304e-15 0)
(5.34343 5.802e-14 0)
(5.34343 5.17756e-14 0)
(5.34343 3.61229e-14 0)
(5.34343 5.68932e-14 0)
(5.34343 1.07225e-13 0)
(5.34343 2.09836e-13 0)
(5.34343 2.56428e-13 0)
(5.34343 8.53781e-14 0)
(5.34343 -8.21942e-14 0)
(5.34343 -1.42901e-13 0)
(5.34343 -1.85165e-13 0)
(5.34343 -2.17692e-13 0)
(5.34343 -9.56832e-16 0)
(5.34343 -3.60796e-14 0)
(5.34343 -3.26056e-14 0)
(5.34343 -3.93368e-14 0)
(5.34343 -8.18475e-14 0)
(5.34343 -1.23785e-13 0)
(5.34343 -1.41031e-13 0)
(5.34343 -1.38997e-13 0)
(5.34343 -1.59661e-13 0)
(5.34343 -2.01888e-13 0)
(5.34343 -1.85045e-13 0)
(5.34343 -1.7118e-13 0)
(5.34343 -1.42115e-13 0)
(5.34343 -1.06352e-13 0)
(5.34343 -7.98738e-14 0)
(5.34343 -5.66531e-14 0)
(5.34343 -5.74299e-14 0)
(5.34343 -9.01489e-14 0)
(5.34343 -1.12049e-13 0)
(5.34343 -1.22368e-13 0)
(5.34343 -1.36647e-13 0)
(5.34343 -1.44062e-13 0)
(5.34343 -1.65722e-13 0)
(5.34343 -1.75624e-13 0)
(5.34343 -1.79421e-13 0)
(5.34343 -1.83222e-13 0)
(5.34343 -1.71603e-13 0)
(5.34343 -9.82036e-14 0)
(5.34343 -4.82017e-14 0)
(5.34343 6.67782e-15 0)
(5.34343 -7.14523e-14 0)
(5.34343 -1.16877e-13 0)
(5.34343 -1.22271e-13 0)
(5.34343 -1.11826e-13 0)
(5.34343 -5.89668e-14 0)
(5.34343 -1.29292e-13 0)
(5.34343 -1.739e-13 0)
(5.34343 -1.77751e-13 0)
(5.34343 -1.38837e-13 0)
(5.34343 -1.30004e-13 0)
(5.34343 6.64781e-15 0)
(5.34343 -1.06852e-14 0)
(5.34343 -4.15072e-15 0)
(5.34343 3.16388e-14 0)
(5.34343 4.52045e-14 0)
(5.34343 5.69865e-14 0)
(5.34343 5.27391e-14 0)
(5.34343 2.24972e-14 0)
(5.34343 8.89154e-15 0)
(5.34343 1.52926e-14 0)
(5.34343 -3.21422e-14 0)
(5.34343 -4.74449e-14 0)
(5.34343 -3.75365e-14 0)
(5.34343 -2.15471e-14 0)
(5.34343 -1.94234e-14 0)
(5.34343 -1.09352e-14 0)
(5.34343 -9.80503e-15 0)
(5.34343 -3.67864e-14 0)
(5.34343 -1.08172e-13 0)
(5.34343 -1.48626e-13 0)
(5.34343 -1.69366e-13 0)
(5.34343 -1.55734e-13 0)
(5.34343 -1.37577e-13 0)
(5.34343 -1.67672e-13 0)
(5.34343 -1.80444e-13 0)
(5.34343 -1.96507e-13 0)
(5.34343 -1.9107e-13 0)
(5.34343 -1.52343e-13 0)
(5.34343 -1.47719e-13 0)
(5.34343 -9.02723e-14 0)
(5.34343 -7.53864e-14 0)
(5.34343 -1.11053e-13 0)
(5.34343 -1.32873e-13 0)
(5.34343 -2.08886e-13 0)
(5.34343 -2.15147e-13 0)
(5.34343 -1.937e-13 0)
(5.34343 -1.84775e-13 0)
(5.34343 -1.69083e-13 0)
(5.34343 -1.68082e-13 0)
(5.34343 -1.54644e-13 0)
(5.34343 -2.44042e-15 0)
(5.34343 1.29156e-14 0)
(5.34343 1.89033e-14 0)
(5.34343 3.884e-14 0)
(5.34343 2.93617e-14 0)
(5.34343 3.6903e-14 0)
(5.34343 5.87701e-14 0)
(5.34343 4.90518e-14 0)
(5.34343 8.01705e-14 0)
(5.34343 1.1713e-13 0)
(5.34343 9.71768e-14 0)
(5.34343 8.38211e-14 0)
(5.34343 9.677e-14 0)
(5.34343 8.91954e-14 0)
(5.34343 7.21058e-14 0)
(5.34343 5.76099e-14 0)
(5.34343 5.63864e-14 0)
(5.34343 6.1804e-14 0)
(5.34343 6.81251e-14 0)
(5.34343 5.16689e-14 0)
(5.34343 1.05585e-14 0)
(5.34343 -5.17823e-14 0)
(5.34343 -9.53531e-14 0)
(5.34343 -1.66292e-13 0)
(5.34343 -2.38184e-13 0)
(5.34343 -2.35551e-13 0)
(5.34343 -1.81538e-13 0)
(5.34343 -1.40218e-13 0)
(5.34343 -1.48616e-13 0)
(5.34343 -2.39058e-13 0)
(5.34343 -2.42375e-13 0)
(5.34343 -2.09633e-13 0)
(5.34343 -1.99044e-13 0)