/*--------------------------------*- C++ -*----------------------------------*\
| =========                 |                                                 |
| \\      /  F ield         | OpenFOAM: The Open Source CFD Toolbox           |
|  \\    /   O peration     | Version:  2206                                  |
|   \\  /    A nd           | Website:  www.openfoam.com                      |
|    \\/     M anipulation  |                                                 |
\*---------------------------------------------------------------------------*/
FoamFile
{
    version     2.0;
    format      ascii;
    arch        "LSB;label=32;scalar=64";
    class       volScalarField;
    location    "0.14";
    object      rho;
}
// * * * * * * * * * * * * * * * * * * * * * * * * * * * * * * * * * * * * * //

dimensions      [1 -3 0 0 0 0 0];

internalField   nonuniform List<scalar> 
4800
(
1.40001
1.40001
1.40001
1.40001
1.40001
1.40001
1.40001
1.40001
1.40001
1.40001
1.40001
1.40001
1.40001
1.40001
1.40001
1.40001
1.40001
1.40001
1.40001
1.40001
1.40001
1.40001
1.40001
1.40001
1.40001
1.40001
1.40001
1.40001
1.40001
1.40001
1.40001
1.40001
1.40001
1.40001
1.40001
1.40001
1.40001
1.40001
1.40001
1.40001
1.40001
1.40001
1.40001
1.40001
1.40001
1.40001
1.40001
1.40001
1.40001
1.40001
1.40001
1.40001
1.40001
1.40001
1.40001
1.40001
1.40001
1.40001
1.40001
1.40001
1.40001
1.40001
1.40001
1.40001
1.40001
1.40001
1.40001
1.40001
1.40001
1.40001
1.40001
1.40001
1.40001
1.40001
1.40001
1.40001
1.40001
1.40001
1.40001
1.40001
1.40001
1.40001
1.40001
1.40001
1.40001
1.40001
1.40001
1.40001
1.40001
1.40001
1.40001
1.40001
1.40001
1.40001
1.40001
1.40001
1.40001
1.40001
1.40001
1.40001
1.40001
1.40001
1.40001
1.40001
1.40001
1.40001
1.40001
1.40001
1.40001
1.40001
1.40001
1.40001
1.40001
1.40001
1.40001
1.40001
1.40001
1.40001
1.40001
1.40001
1.40001
1.40001
1.40001
1.40001
1.40001
1.40001
1.40001
1.40001
1.40001
1.40001
1.40001
1.40001
1.40001
1.40001
1.40001
1.40001
1.40001
1.40001
1.40001
1.40001
1.40001
1.40001
1.40001
1.40001
1.40001
1.40001
1.40001
1.40001
1.40001
1.40001
1.40001
1.40001
1.40001
1.40001
1.40001
1.40001
1.40001
1.40001
1.40001
1.40001
1.40001
1.40001
1.40001
1.40001
1.40001
1.40001
1.40001
1.40001
1.40001
1.40001
1.40001
1.40001
1.40001
1.40001
1.40001
1.40001
1.40001
1.40001
1.40001
1.40001
1.40001
1.40001
1.40001
1.40001
1.40001
1.40001
1.40001
1.40001
1.40001
1.40001
1.40001
1.40001
1.40001
1.40001
1.40001
1.40001
1.40001
1.40001
1.40001
1.40001
1.40001
1.40001
1.40001
1.40001
1.40001
1.40001
1.40001
1.40001
1.40001
1.40001
1.40001
1.40001
1.40001
1.40001
1.40001
1.40001
1.40001
1.40001
1.40001
1.40001
1.40001
1.40001
1.40001
1.40001
1.40001
1.40001
1.40001
1.40001
1.40001
1.40001
1.40001
1.40001
1.40001
1.40001
1.40001
1.40001
1.40001
1.40001
1.40001
1.40001
1.40001
1.40001
1.40001
1.40001
1.40001
1.40001
1.40001
1.40001
1.40001
1.40001
1.40001
1.40001
1.40001
1.40001
1.40001
1.40001
1.40001
1.40001
1.40001
1.40001
1.40001
1.40001
1.40001
1.40001
1.40001
1.40001
1.40001
1.40001
1.40001
1.40001
1.40001
1.40001
1.40001
1.40001
1.40001
1.40001
1.40001
1.40001
1.40001
1.40001
1.40001
1.40001
1.40001
1.40001
1.40001
1.40001
1.40001
1.40001
1.40001
1.40001
1.40001
1.40001
1.40001
1.40001
1.40001
1.40001
1.40001
1.40001
1.40001
1.40001
1.40001
1.40001
1.40001
1.40001
1.40001
1.40001
1.40001
1.40001
1.40001
1.40001
1.40001
1.40001
1.40001
1.40001
1.40001
1.40001
1.40001
1.40001
1.40001
1.40001
1.40001
1.40001
1.40001
1.40001
1.40001
1.40001
1.40001
1.40001
1.40001
1.40001
1.40001
1.40001
1.40001
1.40001
1.40001
1.40001
1.40001
1.40001
1.40001
1.40001
1.40001
1.40001
1.40001
1.40001
1.40001
1.40001
1.40001
1.40001
1.40001
1.40001
1.40001
1.40001
1.40001
1.40001
1.40001
1.40001
1.40001
1.40001
1.40001
1.40001
1.40001
1.40001
1.40001
1.40001
1.40001
1.40001
1.40001
1.40001
1.40001
1.40001
1.40001
1.40001
1.40001
1.40001
1.40001
1.40001
1.40001
1.40001
1.40001
1.40001
1.40001
1.40001
1.40001
1.40001
1.40001
1.40001
1.40001
1.40001
1.40001
1.40001
1.40001
1.40001
1.40001
1.40001
1.40001
1.40001
1.40001
1.40001
1.40001
1.40001
1.40001
1.40001
1.40001
1.40001
1.40001
1.40001
1.40001
1.40001
1.40001
1.40001
1.40001
1.40001
1.40001
1.40001
1.40001
1.40001
1.40001
1.40001
1.40001
1.40001
1.40001
1.40001
1.40001
1.40001
1.40001
1.40001
1.40001
1.40001
1.40001
1.40001
1.40001
1.40001
1.40001
1.40001
1.40001
1.40001
1.40001
1.40001
1.40001
1.40001
1.40001
1.40001
1.40001
1.40001
1.40001
1.40001
1.40001
1.40001
1.40001
1.40001
1.40001
1.40001
1.40001
1.40001
1.40001
1.40001
1.40001
1.40001
1.40001
1.40001
1.40001
1.40001
1.40001
1.40001
1.40001
1.40001
1.40001
1.40001
1.40001
1.40001
1.40001
1.40001
1.40001
1.40001
1.40001
1.40001
1.40001
1.40001
1.40001
1.40001
1.40001
1.40001
1.40001
1.40001
1.40001
1.40001
1.40001
1.40001
1.40001
1.40001
1.40001
1.40001
1.40001
1.40001
1.40001
1.40001
1.40001
1.40001
1.40001
1.40001
1.40001
1.40001
1.40001
1.40001
1.40001
1.40001
1.40001
1.40001
1.40001
1.40001
1.40001
1.40001
1.40001
1.40001
1.40001
1.40001
1.40001
1.40001
1.40001
1.40001
1.40001
1.40001
1.40001
1.40001
1.40001
1.40001
1.40001
1.40001
1.40001
1.40001
1.40001
1.40001
1.40001
1.40001
1.40001
1.40001
1.40001
1.40001
1.40001
1.40001
1.40001
1.40001
1.40001
1.40001
1.40001
1.40001
1.40001
1.40001
1.40001
1.40001
1.40001
1.40001
1.40001
1.40001
1.40001
1.40001
1.40001
1.40001
1.40001
1.40001
1.40001
1.40001
1.40001
1.40001
1.40001
1.40001
1.40001
1.40001
1.40001
1.40001
1.40001
1.40001
1.40001
1.40001
1.40001
1.40001
1.40001
1.40001
1.40001
1.40001
1.40001
1.40001
1.40001
1.40001
1.40001
1.40001
1.40001
1.40001
1.40001
1.40001
1.40001
1.40001
1.40001
1.40001
1.40001
1.40001
1.40001
1.40001
1.40001
1.40001
1.40001
1.40001
1.40001
1.40001
1.40001
1.40001
1.40001
1.40001
1.40001
1.40001
1.40001
1.40001
1.40001
1.40001
1.40001
1.40001
1.40001
1.40001
1.40001
1.40001
1.40001
1.40001
1.40001
1.40001
1.40001
1.40001
1.40001
1.40001
1.40001
1.40001
1.40001
1.40001
1.40001
1.40001
1.40001
1.40001
1.40001
1.40001
1.40001
1.40001
1.40001
1.40001
1.40001
1.40001
1.40001
1.40001
1.40001
1.40001
1.40001
1.40001
1.40001
1.40001
1.40001
1.40001
1.40001
1.40001
1.40001
1.40001
1.40001
1.40001
1.40001
1.40001
1.40001
1.40001
1.40001
1.40001
1.40001
1.40001
1.40001
1.40001
1.40001
1.40001
1.40001
1.40001
1.40001
1.40001
1.40001
1.40001
1.40001
1.40001
1.40001
1.40001
1.40001
1.40001
1.40001
1.40001
1.40001
1.40001
1.40001
1.40001
1.40001
1.40001
1.40001
1.40001
1.40001
1.40001
1.40001
1.40001
1.40001
1.40001
1.40001
1.40001
1.40001
1.40001
1.40001
1.40001
1.40001
1.40001
1.40001
1.40001
1.40001
1.40001
1.40001
1.40001
1.40001
1.40001
1.40001
1.40001
1.40001
1.40001
1.40001
1.40001
1.40001
1.40001
1.40001
1.40001
1.40001
1.40001
1.40001
1.40001
1.40001
1.40001
1.40001
1.40001
1.40001
1.40001
1.40001
1.40001
1.40001
1.40001
1.40001
1.40001
1.40001
1.40001
1.40001
1.40001
1.40001
1.40001
1.40001
1.40001
1.40001
1.40001
1.40001
1.40001
1.40001
1.40001
1.40001
1.40001
1.40001
1.40001
1.40001
1.40001
1.40001
1.40001
1.40001
1.40001
1.40001
1.40001
1.40001
1.40001
1.40001
1.40001
1.40001
1.40001
1.40001
1.40001
1.40001
1.40001
1.40001
1.40001
1.40001
1.40001
1.40001
1.40001
1.40001
1.40001
1.40001
1.40001
1.40001
1.40001
1.40001
1.40001
1.40001
1.40001
1.40001
1.40001
1.40001
1.40001
1.40001
1.40001
1.40001
1.40001
1.40001
1.40001
1.40001
1.40001
1.40001
1.40001
1.40001
1.40001
1.40001
1.40001
1.40001
1.40001
1.40001
1.40001
1.40001
1.40001
1.40001
1.40001
1.40001
1.40001
1.40001
1.40001
1.40001
1.40001
1.40001
1.40001
1.40001
1.40001
1.40001
1.40001
1.40001
1.40001
1.40001
1.40001
1.40001
1.40001
1.40001
1.40001
1.40001
1.40001
1.40001
1.40001
1.40001
1.40001
1.40001
1.40001
1.40001
1.40001
1.40001
1.40001
1.40001
1.40001
1.40001
1.40001
1.40001
1.40001
1.40001
1.40001
1.40001
1.40001
1.40001
1.40001
1.40001
1.40001
1.40001
1.40001
1.40001
1.40001
1.40001
1.40001
1.40001
1.40001
1.40001
1.40001
1.40001
1.40001
1.40001
1.40001
1.40001
1.40001
1.40001
1.40001
1.40001
1.40001
1.40001
1.40001
1.40001
1.40001
1.40001
1.40001
1.40001
1.40001
1.40001
1.40001
1.40001
1.40001
1.40001
1.40001
1.40001
1.40001
1.40001
1.40001
1.40001
1.40001
1.40001
1.40001
1.40001
1.40001
1.40001
1.40001
1.40001
1.40001
1.40001
1.40001
1.40001
1.40001
1.40001
1.40001
1.40001
1.40001
1.40001
1.40001
1.40001
1.40001
1.40001
1.40001
1.40001
1.40001
1.40001
1.40001
1.40001
1.40001
1.40001
1.40001
1.40001
1.40001
1.40001
1.40001
1.40001
1.40001
1.40001
1.40001
1.40001
1.40001
1.40001
1.40001
1.40001
1.40001
1.40001
1.40001
1.40001
1.40001
1.40001
1.40001
1.40001
1.40001
1.40001
1.40001
1.40001
1.40001
1.40001
1.40001
1.40001
1.40001
1.40001
1.40001
1.40001
1.40001
1.40001
1.40001
1.40001
1.40001
1.40001
1.40001
1.40001
1.40001
1.40001
1.40001
1.40001
1.40001
1.40001
1.40001
1.40001
1.40001
1.40001
1.40001
1.40001
1.40001
1.40001
1.40001
1.40001
1.40001
1.40001
1.40001
1.40001
1.40001
1.40001
1.40001
1.40001
1.40001
1.40001
1.40001
1.40001
1.40001
1.40001
1.40001
1.40001
1.40001
1.40001
1.40001
1.40001
1.40001
1.40001
1.40001
1.40001
1.40001
1.40001
1.40001
1.40001
1.40001
1.40001
1.40001
1.40001
1.40001
1.40001
1.40001
1.40001
1.40001
1.40001
1.40001
1.40001
1.40001
1.40001
1.40001
1.40001
1.40001
1.40001
1.40001
1.40001
1.40001
1.40001
1.40001
1.40001
1.40001
1.40001
1.40001
1.40001
1.40001
1.40001
1.40001
1.40001
1.40001
1.40001
1.40001
1.40001
1.40001
1.40001
1.40001
1.40001
1.40001
1.40001
1.40001
1.40001
1.40001
1.40001
1.40001
1.40001
1.40001
1.40001
1.40001
1.40001
1.40001
1.40001
1.40001
1.40001
1.40001
1.40001
1.40001
1.40001
1.40001
1.40001
1.40001
1.40001
1.40001
1.40001
1.40001
1.40001
1.40001
1.40001
1.40001
1.40001
1.40001
1.40001
1.40001
1.40001
1.40001
1.40001
1.40001
1.40001
1.40001
1.40001
1.40001
1.40001
1.40001
1.40001
1.40001
1.40001
1.40001
1.40001
1.40001
1.40001
1.40001
1.40001
1.40001
1.40001
1.40001
1.40001
1.40001
1.40001
1.40001
1.40001
1.40001
1.40001
1.40001
1.40001
1.40001
1.40001
1.40001
1.40001
1.40001
1.40001
1.40001
1.40001
1.40001
1.40001
1.40001
1.40001
1.40001
1.40001
1.40001
1.40001
1.40001
1.40001
1.40001
1.40001
1.40001
1.40001
1.40001
1.40001
1.40001
1.40001
1.40001
1.40001
1.40001
1.40001
1.40001
1.40001
1.40001
1.40001
1.40001
1.40001
1.40001
1.40001
1.40001
1.40001
1.40001
1.40001
1.40001
1.40001
1.40001
1.40001
1.40001
1.40001
1.40001
1.40001
1.40001
1.40001
1.40001
1.40001
1.40001
1.40001
1.40001
1.40001
1.40001
1.40001
1.40001
1.40001
1.40001
1.40001
1.40001
1.40001
1.40001
1.40001
1.40001
1.40001
1.40001
1.40001
1.40001
1.40001
1.40001
1.40001
1.40001
1.40001
1.40001
1.40001
1.40001
1.40001
1.40001
1.40001
1.40001
1.40001
1.40001
1.40001
1.40001
1.40001
1.40001
1.40001
1.40001
1.40001
1.40001
1.40001
1.40001
1.40001
1.40001
1.40001
1.40001
1.40001
1.40001
1.40001
1.40001
1.40001
1.40001
1.40001
1.40001
1.40001
1.40001
1.40001
1.40001
1.40001
1.40001
1.40001
1.40001
1.40001
1.40001
1.40001
1.40001
1.40001
1.40001
1.40001
1.40001
1.40001
1.40001
1.40001
1.40001
1.40001
1.40001
1.40001
1.40001
1.40001
1.40001
1.40001
1.40001
1.40001
1.40001
1.40001
1.40001
1.40001
1.40001
1.40001
1.40001
1.40001
1.40001
1.40001
1.40001
1.40001
1.40001
1.40001
1.40001
1.40001
1.40001
1.40001
1.40001
1.40001
1.40001
1.40001
1.40001
1.40001
1.40001
1.40001
1.40001
1.40001
1.40001
1.40001
1.40001
1.40001
1.40001
1.40001
1.40001
1.40001
1.40001
1.40001
1.40001
1.40001
1.40001
1.40001
1.40001
1.40001
1.40001
1.40001
1.40001
1.40001
1.40001
1.40001
1.40001
1.40001
1.40001
1.40001
1.40001
1.40001
1.40001
1.40001
1.40001
1.40001
1.40001
1.40001
1.40001
1.40001
1.40001
1.40001
1.40001
1.40001
1.40001
1.40001
1.40001
1.40001
1.40001
1.40001
1.40001
1.40001
1.40001
1.40001
1.40001
1.40001
1.40001
1.40001
1.40001
1.40001
1.40001
1.40001
1.40001
1.40001
1.40001
1.40001
1.40001
1.40001
1.40001
1.40001
1.40001
1.40001
1.40001
1.40001
1.40001
1.40001
1.40001
1.40001
1.40001
1.40001
1.40001
1.40001
1.40001
1.40001
1.40001
1.40001
1.40001
1.40001
1.40001
1.40001
1.40001
1.40001
1.40001
1.40001
1.40001
1.40001
1.40001
1.40001
1.40001
1.40001
1.40001
1.40001
1.40001
1.40001
1.40001
1.40001
1.40001
1.40001
1.40001
1.40001
1.40001
1.40001
1.40001
1.40001
1.40001
1.40001
1.40001
1.40001
1.40001
1.40001
1.40001
1.40001
1.40001
1.40001
1.40001
1.40001
1.40001
1.40001
1.40001
1.40001
1.40001
1.40001
1.40001
1.40001
1.40001
1.40001
1.40001
1.40001
1.40001
1.40001
1.40001
1.40001
1.40001
1.40001
1.40001
1.40001
1.40001
1.40001
1.40001
1.40001
1.40001
1.40001
1.40001
1.40001
1.40001
1.40001
1.40001
1.40001
1.40001
1.40001
1.40001
1.40001
1.40001
1.40001
1.40001
1.40001
1.40001
1.40001
1.40001
1.40001
1.40001
1.40001
1.40001
1.40001
1.40001
1.40001
1.40001
1.40001
1.40001
1.40001
1.40001
1.40001
1.40001
1.40001
1.40001
1.40001
1.40001
1.40001
1.40001
1.40001
1.40001
1.40001
1.40001
1.40001
1.40001
1.40001
1.40001
1.40001
1.40001
1.40001
1.40001
1.40001
1.40001
1.40001
1.40001
1.40001
1.40001
1.40001
1.40001
1.40001
1.40001
1.40001
1.40001
1.40001
1.40001
1.40001
1.40001
1.40001
1.40001
1.40001
1.40001
1.40001
1.40001
1.40001
1.40001
1.40001
1.40001
1.40001
1.40001
1.40001
1.40001
1.40001
1.40001
1.40001
1.40001
1.40001
1.40001
1.40001
1.40001
1.40001
1.40001
1.40001
1.40001
1.40001
1.40001
1.40001
1.40001
1.40001
1.40001
1.40001
1.40001
1.40001
1.40001
1.40001
1.40001
1.40001
1.40001
1.40001
1.40001
1.40001
1.40001
1.40001
1.40001
1.40001
1.40001
1.40001
1.40001
1.40001
1.40001
1.40001
1.40001
1.40001
1.40001
1.40001
1.40001
1.40001
1.40001
1.40001
1.40001
1.40001
1.40001
1.40001
1.40001
1.40001
1.40001
1.40001
1.40001
1.40001
1.40001
1.40001
1.40001
1.40001
1.40001
1.40001
1.40001
1.40001
1.40001
1.40001
1.40001
1.40001
1.40001
1.40001
1.40001
1.40001
1.40001
1.40001
1.40001
1.40001
1.40001
1.40001
1.40001
1.65567
2.03196
2.4426
2.78531
3.13157
3.50194
3.68186
3.87863
4.05036
4.04386
3.97649
3.8335
3.64065
3.43338
3.29843
3.20499
3.15063
3.13652
3.13288
3.1444
3.16695
3.18086
3.1966
3.21322
3.22594
3.23582
3.24353
3.24718
3.24835
3.25031
3.25041
3.24865
3.24371
3.23558
3.22912
3.22834
3.22942
3.23113
3.23242
3.23317
3.23351
3.23446
3.237
3.23959
3.24173
3.24454
3.24804
3.24925
3.24879
3.24794
3.24624
3.24348
3.24098
3.23943
3.23845
3.23815
3.23843
3.24002
3.24124
3.24135
3.24102
3.23991
3.23866
3.23773
3.237
3.23648
3.23625
3.23632
3.23671
3.23711
3.23766
3.23845
3.23966
3.24088
3.24097
3.24052
3.23917
3.23593
3.23088
3.21816
1.40348
1.41317
1.45536
1.55973
1.68726
1.89098
2.17287
2.4531
2.75535
3.02373
3.22317
3.28209
3.41032
3.42382
3.3806
3.35988
3.32375
3.29692
3.25682
3.23051
3.20678
3.18142
3.17813
3.18237
3.19467
3.21046
3.22179
3.22621
3.23021
3.23371
3.23478
3.23464
3.23292
3.23163
3.2322
3.23581
3.23909
3.2395
3.23918
3.23714
3.23352
3.23131
3.23134
3.23213
3.23269
3.23301
3.23402
3.2363
3.23823
3.23891
3.23897
3.23818
3.2373
3.23724
3.23775
3.2386
3.23982
3.24107
3.24152
3.24153
3.24118
3.24038
3.23973
3.23948
3.23932
3.23901
3.23872
3.2385
3.23812
3.23771
3.23748
3.23738
3.23753
3.23807
3.23807
3.23759
3.23632
3.23354
3.22905
3.21625
1.40001
1.4
1.4
1.4003
1.4017
1.40807
1.43755
1.5026
1.66647
1.93565
2.36209
2.84367
3.18425
3.4293
3.46058
3.47174
3.46174
3.42539
3.3662
3.2696
3.20174
3.15855
3.1556
3.15987
3.1708
3.19314
3.19877
3.19429
3.19194
3.19496
3.20105
3.20682
3.21332
3.21893
3.2234
3.23013
3.23463
3.23532
3.23503
3.23281
3.22865
3.22549
3.22381
3.22252
3.22177
3.22158
3.22176
3.2226
3.22372
3.22442
3.22483
3.22518
3.22576
3.22681
3.22825
3.23009
3.23223
3.23398
3.23547
3.23669
3.23714
3.23698
3.23658
3.23652
3.23657
3.23684
3.23713
3.23725
3.23701
3.23625
3.23545
3.23507
3.23499
3.23493
3.23488
3.23451
3.23345
3.23099
3.22714
3.21477
1.40001
1.4
1.4
1.4
1.4
1.4
1.40003
1.40008
1.4013
1.4098
1.456
1.64859
1.96885
2.47822
2.86862
3.13879
3.29938
3.29229
3.2999
3.32039
3.30825
3.26334
3.22636
3.20356
3.18951
3.18112
3.16231
3.14926
3.15103
3.15773
3.16855
3.17853
3.18636
3.19259
3.19975
3.20868
3.21581
3.22029
3.2217
3.22072
3.21748
3.21345
3.21209
3.21244
3.213
3.21319
3.21251
3.21215
3.21247
3.21278
3.21335
3.21398
3.21462
3.21562
3.21685
3.21809
3.21907
3.21972
3.22066
3.22183
3.22305
3.2244
3.22591
3.22747
3.22895
3.23018
3.23096
3.23136
3.23136
3.23049
3.22923
3.22859
3.22843
3.22841
3.2285
3.22841
3.22791
3.22601
3.22257
3.21058
1.40001
1.40001
1.40001
1.40001
1.40001
1.4
1.4
1.4
1.4
1.40001
1.39999
1.40132
1.41469
1.49158
1.76263
2.12662
2.61404
2.92802
3.18668
3.33297
3.33241
3.32741
3.30197
3.26852
3.20879
3.17732
3.15409
3.14525
3.14641
3.14918
3.15307
3.16267
3.16793
3.16939
3.17351
3.17862
3.18346
3.18898
3.19277
3.19338
3.1939
3.19576
3.19895
3.2027
3.20435
3.20455
3.20469
3.20462
3.20486
3.20529
3.20592
3.2068
3.20724
3.20779
3.20866
3.20906
3.20893
3.20855
3.20827
3.20833
3.20891
3.20987
3.21116
3.21295
3.21499
3.21662
3.21737
3.21788
3.21817
3.21787
3.21737
3.21745
3.21763
3.218
3.21832
3.21822
3.21792
3.21647
3.21377
3.20321
1.40001
1.40001
1.40001
1.40001
1.40001
1.40001
1.40001
1.40001
1.4
1.4
1.4
1.4
1.39999
1.4001
1.40464
1.43143
1.5551
1.8836
2.28051
2.74079
2.96432
3.16223
3.20857
3.20526
3.21599
3.22548
3.21903
3.20239
3.19334
3.1819
3.1715
3.16467
3.15793
3.1557
3.15819
3.16538
3.17198
3.17479
3.1742
3.17401
3.17538
3.17893
3.18345
3.18846
3.19223
3.19378
3.19502
3.19595
3.19677
3.19811
3.19963
3.20119
3.20224
3.20303
3.20364
3.20367
3.203
3.20146
3.19948
3.19836
3.19858
3.19919
3.20012
3.20201
3.20439
3.20516
3.20549
3.20555
3.20541
3.20508
3.2052
3.20576
3.20657
3.20758
3.20783
3.20744
3.20661
3.20492
3.20183
3.19146
1.40001
1.40001
1.40001
1.40001
1.40001
1.40001
1.40001
1.40001
1.40001
1.40001
1.40001
1.40001
1.4
1.4
1.40001
1.4
1.40057
1.41222
1.46107
1.65915
2.03808
2.49707
2.8566
3.03346
3.20351
3.24359
3.24452
3.23936
3.23056
3.21033
3.18577
3.17656
3.17082
3.1721
3.17587
3.17535
3.17052
3.16909
3.16893
3.1708
3.17436
3.17649
3.17776
3.17944
3.18144
3.182
3.18234
3.18296
3.184
3.18555
3.18787
3.19105
3.19429
3.19672
3.19787
3.19796
3.19727
3.19591
3.1945
3.19414
3.19447
3.19513
3.19656
3.19887
3.20063
3.20099
3.20098
3.20037
3.19925
3.19885
3.19891
3.19943
3.2007
3.20207
3.20218
3.20149
3.19962
3.19684
3.19278
3.18118
1.40001
1.40001
1.40001
1.40001
1.40001
1.40001
1.40001
1.40001
1.40001
1.40001
1.40001
1.40001
1.40001
1.4
1.4
1.4
1.4
1.4
1.40006
1.40265
1.4298
1.52271
1.82489
2.2236
2.6905
2.93692
3.06757
3.1405
3.15311
3.17064
3.19525
3.19923
3.19605
3.19283
3.19415
3.19296
3.19193
3.19055
3.18846
3.18753
3.18972
3.19157
3.19041
3.1872
3.18438
3.1809
3.17861
3.17772
3.17769
3.17793
3.17858
3.18083
3.18481
3.18909
3.19163
3.19285
3.19391
3.19456
3.19462
3.19468
3.19518
3.19617
3.19788
3.20005
3.20114
3.20109
3.20051
3.19909
3.19719
3.19625
3.19593
3.19603
3.19764
3.19962
3.19973
3.19879
3.19628
3.19259
3.18749
3.17419
1.40001
1.40001
1.40001
1.40001
1.40001
1.40001
1.40001
1.40001
1.40001
1.40001
1.40001
1.40001
1.40001
1.40001
1.40001
1.40001
1.40001
1.4
1.4
1.40001
1.40002
1.40048
1.41078
1.46622
1.6284
2.0127
2.45574
2.91404
3.01975
3.11472
3.16502
3.1872
3.18673
3.1767
3.17579
3.18804
3.19574
3.19309
3.19236
3.19367
3.19947
3.20819
3.21302
3.21263
3.20767
3.19936
3.19178
3.18806
3.18604
3.18313
3.18122
3.18102
3.18352
3.18766
3.18921
3.1897
3.19033
3.19132
3.19195
3.1926
3.19373
3.19563
3.19818
3.20051
3.20101
3.20063
3.1996
3.19753
3.19509
3.19399
3.19371
3.19401
3.19585
3.19763
3.19758
3.19655
3.19454
3.19108
3.1856
3.17089
1.40001
1.40001
1.40001
1.40001
1.40001
1.40001
1.40001
1.40001
1.40001
1.40001
1.40001
1.40001
1.40001
1.40001
1.40001
1.40001
1.40001
1.40001
1.4
1.4
1.4
1.4
1.4
1.40015
1.40238
1.43507
1.53856
1.82939
2.27201
2.71054
3.02116
3.08645
3.14158
3.15474
3.14373
3.1584
3.1704
3.17673
3.18051
3.1811
3.18607
3.19764
3.21027
3.21498
3.21494
3.21242
3.20902
3.20761
3.20711
3.20463
3.19997
3.19674
3.19575
3.19506
3.19458
3.19398
3.19275
3.19195
3.19157
3.19167
3.19265
3.19432
3.19591
3.19732
3.19734
3.19685
3.19627
3.19545
3.19438
3.19385
3.19379
3.19426
3.1954
3.19632
3.1965
3.19588
3.19429
3.19079
3.18463
3.16842
1.40001
1.40001
1.40001
1.40001
1.40001
1.40001
1.40001
1.40001
1.40001
1.40001
1.40001
1.40001
1.40001
1.40001
1.40001
1.40001
1.40001
1.40001
1.40001
1.40001
1.40001
1.40001
1.4
1.4
1.4
1.40005
1.40093
1.41278
1.49768
1.68337
2.07621
2.51929
2.95685
3.12336
3.14924
3.19154
3.18119
3.17374
3.17218
3.16452
3.16347
3.1693
3.18256
3.19763
3.2035
3.20448
3.20935
3.21344
3.2153
3.21481
3.21206
3.21102
3.2111
3.2109
3.21034
3.20843
3.20484
3.20136
3.19834
3.19631
3.19593
3.19667
3.19778
3.19767
3.19686
3.19591
3.19534
3.19487
3.19446
3.19454
3.19472
3.19532
3.196
3.19556
3.19464
3.19421
3.1931
3.18968
3.18412
3.16905
1.40001
1.40001
1.40001
1.40001
1.40001
1.40001
1.40001
1.40001
1.40001
1.40001
1.40001
1.40001
1.40001
1.40001
1.40001
1.40001
1.40001
1.40001
1.40001
1.40001
1.40001
1.40001
1.40001
1.40001
1.4
1.4
1.4
1.4
1.40052
1.40472
1.45149
1.60648
1.95673
2.41247
2.81499
3.09394
3.18194
3.20059
3.21177
3.19093
3.17928
3.17944
3.18006
3.18726
3.19
3.18993
3.19249
3.19646
3.20023
3.20677
3.21333
3.21519
3.21614
3.21654
3.21649
3.21496
3.21299
3.21197
3.21048
3.2083
3.20695
3.20651
3.20568
3.20406
3.20161
3.19882
3.19741
3.19699
3.19686
3.19704
3.19752
3.19828
3.19818
3.19727
3.19538
3.19209
3.19037
3.18755
3.18309
3.16913
1.40001
1.40001
1.40001
1.40001
1.40001
1.40001
1.40001
1.40001
1.40001
1.40001
1.40001
1.40001
1.40001
1.40001
1.40001
1.40001
1.40001
1.40001
1.40001
1.40001
1.40001
1.40001
1.40001
1.40001
1.40001
1.40001
1.40001
1.4
1.40001
1.4
1.40019
1.40287
1.42827
1.57531
1.84961
2.2883
2.70854
3.0507
3.17381
3.19859
3.22035
3.2388
3.23327
3.22197
3.20946
3.19942
3.19487
3.19425
3.19531
3.19924
3.20515
3.2077
3.20943
3.21027
3.21119
3.2127
3.21341
3.21383
3.21408
3.21396
3.21369
3.21389
3.21397
3.21312
3.21112
3.20775
3.20429
3.203
3.20288
3.20361
3.20582
3.20751
3.2069
3.20435
3.19939
3.19354
3.19022
3.18708
3.18227
3.16834
1.40001
1.40001
1.40001
1.40001
1.40001
1.40001
1.40001
1.40001
1.40001
1.40001
1.40001
1.40001
1.40001
1.40001
1.40001
1.40001
1.40001
1.40001
1.40001
1.40001
1.40001
1.40001
1.40001
1.40001
1.40001
1.40001
1.40001
1.40001
1.40001
1.4
1.4
1.4
1.40006
1.4023
1.41663
1.52005
1.78455
2.21985
2.6307
2.96884
3.13705
3.22082
3.25154
3.25428
3.24926
3.24351
3.23574
3.22788
3.22042
3.21548
3.21369
3.21263
3.21228
3.21177
3.21086
3.20991
3.21089
3.21233
3.21292
3.21391
3.21468
3.21653
3.21834
3.2181
3.2168
3.21456
3.21115
3.20894
3.20869
3.20928
3.21161
3.21397
3.21457
3.21362
3.20977
3.20013
3.19226
3.1882
3.18342
3.16958
1.40001
1.40001
1.40001
1.40001
1.40001
1.40001
1.40001
1.40001
1.40001
1.40001
1.40001
1.40001
1.40001
1.40001
1.40001
1.40001
1.40001
1.40001
1.40001
1.40001
1.40001
1.40001
1.40001
1.40001
1.40001
1.40001
1.40001
1.40001
1.40001
1.40001
1.40001
1.4
1.4
1.4
1.40002
1.40129
1.41262
1.48672
1.77043
2.20971
2.60829
2.92245
3.12195
3.2114
3.23154
3.2391
3.24691
3.24818
3.24689
3.24327
3.23859
3.23587
3.23507
3.23254
3.22742
3.2207
3.21762
3.21744
3.21713
3.21711
3.21757
3.21948
3.22138
3.22116
3.22031
3.21878
3.21579
3.21292
3.2123
3.21251
3.21358
3.21571
3.21788
3.21789
3.21638
3.21031
3.20101
3.19409
3.18776
3.1727
1.40001
1.40001
1.40001
1.40001
1.40001
1.40001
1.40001
1.40001
1.40001
1.40001
1.40001
1.40001
1.40001
1.40001
1.40001
1.40001
1.40001
1.40001
1.40001
1.40001
1.40001
1.40001
1.40001
1.40001
1.40001
1.40001
1.40001
1.40001
1.40001
1.40001
1.40001
1.40001
1.40001
1.4
1.4
1.4
1.40001
1.40082
1.41454
1.47871
1.73757
2.18618
2.67083
2.92644
3.07557
3.14957
3.19229
3.21313
3.23593
3.24331
3.24376
3.24496
3.24742
3.24753
3.24377
3.23887
3.23616
3.23341
3.2291
3.22609
3.22589
3.2258
3.22624
3.22615
3.22567
3.22442
3.22207
3.21911
3.21687
3.21568
3.21545
3.21628
3.21773
3.2193
3.21882
3.21509
3.20859
3.20179
3.19483
3.1789
1.40001
1.40001
1.40001
1.40001
1.40001
1.40001
1.40001
1.40001
1.40001
1.40001
1.40001
1.40001
1.40001
1.40001
1.40001
1.40001
1.40001
1.40001
1.40001
1.40001
1.40001
1.40001
1.40001
1.40001
1.40001
1.40001
1.40001
1.40001
1.40001
1.40001
1.40001
1.40001
1.40001
1.40001
1.40001
1.4
1.4
1.4
1.40002
1.40063
1.41392
1.47938
1.73062
2.20182
2.75095
2.99326
3.08337
3.14144
3.17256
3.1956
3.19664
3.20336
3.21694
3.23029
3.23554
3.23744
3.23979
3.24074
3.23743
3.23158
3.23018
3.23064
3.23098
3.23068
3.22995
3.22966
3.22993
3.22998
3.2286
3.22582
3.22254
3.21987
3.21879
3.21765
3.21664
3.21537
3.21225
3.20672
3.1998
3.18381
1.40001
1.40001
1.40001
1.40001
1.40001
1.40001
1.40001
1.40001
1.40001
1.40001
1.40001
1.40001
1.40001
1.40001
1.40001
1.40001
1.40001
1.40001
1.40001
1.40001
1.40001
1.40001
1.40001
1.40001
1.40001
1.40001
1.40001
1.40001
1.40001
1.40001
1.40001
1.40001
1.40001
1.40001
1.40001
1.40001
1.40001
1.4
1.4
1.4
1.40003
1.40068
1.41402
1.49944
1.77246
2.25022
2.78212
3.09671
3.16102
3.19506
3.18675
3.18895
3.19558
3.20262
3.21465
3.21843
3.2212
3.22579
3.2275
3.22719
3.22875
3.23066
3.23092
3.23016
3.22965
3.23035
3.23217
3.23404
3.23514
3.23565
3.23455
3.23038
3.22369
3.21865
3.21689
3.21593
3.2137
3.20909
3.20253
3.1866
1.40001
1.40001
1.40001
1.40001
1.40001
1.40001
1.40001
1.40001
1.40001
1.40001
1.40001
1.40001
1.40001
1.40001
1.40001
1.40001
1.40001
1.40001
1.40001
1.40001
1.40001
1.40001
1.40001
1.40001
1.40001
1.40001
1.40001
1.40001
1.40001
1.40001
1.40001
1.40001
1.40001
1.40001
1.40001
1.40001
1.40001
1.40001
1.40001
1.4
1.4
1.4
1.40004
1.40119
1.41769
1.52828
1.84083
2.35768
2.84259
3.1276
3.20348
3.22114
3.24384
3.23616
3.22798
3.2234
3.22248
3.22211
3.22089
3.22118
3.22589
3.22733
3.22678
3.22435
3.22213
3.22177
3.22338
3.22791
3.23503
3.2388
3.23918
3.23791
3.23471
3.22803
3.2212
3.2188
3.21648
3.21206
3.20539
3.18873
1.40001
1.40001
1.40001
1.40001
1.40001
1.40001
1.40001
1.40001
1.40001
1.40001
1.40001
1.40001
1.40001
1.40001
1.40001
1.40001
1.40001
1.40001
1.40001
1.40001
1.40001
1.40001
1.40001
1.40001
1.40001
1.40001
1.40001
1.40001
1.40001
1.40001
1.40001
1.40001
1.40001
1.40001
1.40001
1.40001
1.40001
1.40001
1.40001
1.40001
1.40001
1.4
1.4
1.4
1.40007
1.40211
1.42547
1.58552
1.95102
2.47991
2.91663
3.12593
3.22916
3.26162
3.26276
3.25185
3.24194
3.23869
3.23367
3.23282
3.23642
3.23759
3.23606
3.22939
3.22299
3.22107
3.22117
3.22267
3.22495
3.22843
3.23429
3.23865
3.23877
3.23488
3.22818
3.22419
3.22145
3.21701
3.21037
3.19225
1.40001
1.40001
1.40001
1.40001
1.40001
1.40001
1.40001
1.40001
1.40001
1.40001
1.40001
1.40001
1.40001
1.40001
1.40001
1.40001
1.40001
1.40001
1.40001
1.40001
1.40001
1.40001
1.40001
1.40001
1.40001
1.40001
1.40001
1.40001
1.40001
1.40001
1.40001
1.40001
1.40001
1.40001
1.40001
1.40001
1.40001
1.40001
1.40001
1.40001
1.40001
1.40001
1.40001
1.4
1.4
1.4
1.40015
1.40464
1.4418
1.67867
2.18058
2.62908
2.95351
3.16217
3.21737
3.22996
3.23422
3.23346
3.2315
3.23464
3.24395
3.24861
3.24839
3.2442
3.2419
3.23902
3.23405
3.22697
3.2217
3.22171
3.22426
3.2296
3.23422
3.23456
3.23067
3.22713
3.22549
3.2219
3.21578
3.1974
1.40001
1.40001
1.40001
1.40001
1.40001
1.40001
1.40001
1.40001
1.40001
1.40001
1.40001
1.40001
1.40001
1.40001
1.40001
1.40001
1.40001
1.40001
1.40001
1.40001
1.40001
1.40001
1.40001
1.40001
1.40001
1.40001
1.40001
1.40001
1.40001
1.40001
1.40001
1.40001
1.40001
1.40001
1.40001
1.40001
1.40001
1.40001
1.40001
1.40001
1.40001
1.40001
1.40001
1.40001
1.4
1.4
1.4
1.40001
1.40039
1.41258
1.48904
1.80462
2.31942
2.89521
3.05226
3.11804
3.17526
3.20767
3.2019
3.20038
3.21095
3.22274
3.23001
3.23671
3.24467
3.24993
3.2502
3.24676
3.23582
3.22609
3.22482
3.22758
3.2316
3.23183
3.23011
3.22775
3.22583
3.22247
3.21767
3.20199
1.40001
1.40001
1.40001
1.40001
1.40001
1.40001
1.40001
1.40001
1.40001
1.40001
1.40001
1.40001
1.40001
1.40001
1.40001
1.40001
1.40001
1.40001
1.40001
1.40001
1.40001
1.40001
1.40001
1.40001
1.40001
1.40001
1.40001
1.40001
1.40001
1.40001
1.40001
1.40001
1.40001
1.40001
1.40001
1.40001
1.40001
1.40001
1.40001
1.40001
1.40001
1.40001
1.40001
1.40001
1.40001
1.40001
1.4
1.4
1.4
1.40005
1.40134
1.42865
1.55517
1.98799
2.60172
2.98782
3.20577
3.23266
3.21333
3.20252
3.20432
3.19814
3.19397
3.19633
3.21182
3.2357
3.25241
3.25446
3.25082
3.24323
3.23559
3.23267
3.23213
3.2318
3.23059
3.22732
3.22318
3.21956
3.21669
3.20331
1.40001
1.40001
1.40001
1.40001
1.40001
1.40001
1.40001
1.40001
1.40001
1.40001
1.40001
1.40001
1.40001
1.40001
1.40001
1.40001
1.40001
1.40001
1.40001
1.40001
1.40001
1.40001
1.40001
1.40001
1.40001
1.40001
1.40001
1.40001
1.40001
1.40001
1.40001
1.40001
1.40001
1.40001
1.40001
1.40001
1.40001
1.40001
1.40001
1.40001
1.40001
1.40001
1.40001
1.40001
1.40001
1.40001
1.40001
1.40001
1.4
1.4
1.4
1.40022
1.40436
1.46326
1.75549
2.26648
2.80695
3.14204
3.22939
3.24887
3.26343
3.24508
3.21045
3.19063
3.19181
3.20301
3.21893
3.23626
3.24349
3.24161
3.2377
3.23481
3.2347
3.23471
3.23325
3.22879
3.22283
3.21542
3.21135
3.20171
1.40001
1.40001
1.40001
1.40001
1.40001
1.40001
1.40001
1.40001
1.40001
1.40001
1.40001
1.40001
1.40001
1.40001
1.40001
1.40001
1.40001
1.40001
1.40001
1.40001
1.40001
1.40001
1.40001
1.40001
1.40001
1.40001
1.40001
1.40001
1.40001
1.40001
1.40001
1.40001
1.40001
1.40001
1.40001
1.40001
1.40001
1.40001
1.40001
1.40001
1.40001
1.40001
1.40001
1.40001
1.40001
1.40001
1.40001
1.40001
1.40001
1.40001
1.4
1.4
1.40002
1.40112
1.42038
1.57588
1.97163
2.57706
2.96011
3.16044
3.24716
3.265
3.26433
3.24509
3.21804
3.20694
3.20618
3.21302
3.22516
3.23053
3.23227
3.23357
3.23482
3.23576
3.23587
3.23323
3.22634
3.21574
3.20481
3.1932
1.40001
1.40001
1.40001
1.40001
1.40001
1.40001
1.40001
1.40001
1.40001
1.40001
1.40001
1.40001
1.40001
1.40001
1.40001
1.40001
1.40001
1.40001
1.40001
1.40001
1.40001
1.40001
1.40001
1.40001
1.40001
1.40001
1.40001
1.40001
1.40001
1.40001
1.40001
1.40001
1.40001
1.40001
1.40001
1.40001
1.40001
1.40001
1.40001
1.40001
1.40001
1.40001
1.40001
1.40001
1.40001
1.40001
1.40001
1.40001
1.40001
1.40001
1.40001
1.4
1.4
1.40001
1.40017
1.40571
1.45753
1.76783
2.39867
2.81988
3.06382
3.22732
3.26548
3.26581
3.25687
3.24508
3.23409
3.22752
3.22673
3.22918
3.23038
3.2311
3.23201
3.23369
3.23574
3.2365
3.23376
3.22412
3.20756
3.1864
1.40001
1.40001
1.40001
1.40001
1.40001
1.40001
1.40001
1.40001
1.40001
1.40001
1.40001
1.40001
1.40001