/*--------------------------------*- C++ -*----------------------------------*\
| =========                 |                                                 |
| \\      /  F ield         | OpenFOAM: The Open Source CFD Toolbox           |
|  \\    /   O peration     | Version:  2206                                  |
|   \\  /    A nd           | Website:  www.openfoam.com                      |
|    \\/     M anipulation  |                                                 |
\*---------------------------------------------------------------------------*/
FoamFile
{
    version     2.0;
    format      ascii;
    arch        "LSB;label=32;scalar=64";
    class       volVectorField;
    location    "0.14";
    object      U;
}
// * * * * * * * * * * * * * * * * * * * * * * * * * * * * * * * * * * * * * //

dimensions      [0 1 -1 0 0 0 0];

internalField   nonuniform List<vector> 
75
(
(3.9697 -5.13672e-15 0)
(3.9697 -5.1288e-15 0)
(3.9697 -1.62528e-17 0)
(3.9697 -2.90467e-16 0)
(3.9697 -9.11824e-16 0)
(3.9697 -4.2299e-16 0)
(3.9697 -6.83285e-15 0)
(3.9697 -6.53279e-15 0)
(3.9697 -6.21399e-15 0)
(3.9697 -5.52313e-15 0)
(3.9697 -5.12297e-15 0)
(3.9697 -5.07254e-15 0)
(3.9697 -9.42496e-15 0)
(3.9697 -8.61857e-15 0)
(3.9697 -8.66909e-16 0)
(3.9697 -4.60455e-15 0)
(3.9697 -7.08456e-16 0)
(3.9697 3.76398e-15 0)
(3.9697 7.86928e-15 0)
(3.9697 1.4756e-14 0)
(3.9697 4.60996e-15 0)
(3.9697 4.2724e-15 0)
(3.9697 7.6509e-15 0)
(3.9697 1.47334e-14 0)
(3.9697 1.55073e-14 0)
(3.92556 0.00133065 0)
(3.85782 0.0815285 0)
(3.79979 0.124026 0)
(3.71422 0.280414 0)
(3.67443 0.336111 0)
(3.57486 0.509801 0)
(3.52771 0.603183 0)
(3.48535 0.758209 0)
(3.40183 0.881935 0)
(3.40331 0.949233 0)
(3.96867 0.0010955 0)
(3.95831 0.0195992 0)
(3.93721 0.0637402 0)
(3.87172 0.198585 0)
(3.81829 0.3516 0)
(3.66104 0.662996 0)
(3.59308 0.885586 0)
(3.40536 1.23597 0)
(3.28148 1.16895 0)
(3.3545 1.07443 0)
(3.96971 -1.68433e-05 0)
(3.96965 0.000102153 0)
(3.96976 -0.000222219 0)
(3.96882 0.00178426 0)
(3.96542 0.0103485 0)
(3.94744 0.0576424 0)
(3.90946 0.176656 0)
(3.82525 0.501984 0)
(3.67014 0.832762 0)
(3.49362 0.97841 0)
(3.9697 -2.62885e-06 0)
(3.9697 -2.99883e-06 0)
(3.9697 -8.06289e-06 0)
(3.96972 -6.21147e-05 0)
(3.96968 0.000107073 0)
(3.96975 -0.000117613 0)
(3.96737 0.00720288 0)
(3.94837 0.0836032 0)
(3.84659 0.505625 0)
(3.58915 0.893661 0)
(3.9697 -2.96344e-08 0)
(3.9697 -4.19318e-07 0)
(3.9697 -8.31669e-07 0)
(3.96971 -1.3585e-05 0)
(3.9697 -1.16165e-05 0)
(3.9697 -9.24207e-06 0)
(3.96971 -4.49702e-05 0)
(3.96843 0.00146924 0)
(3.92603 0.0694578 0)
(3.60556 0.376481 0)
)
;

boundaryField
{
    inlet
    {
        type            fixedValue;
        value           uniform (3.9697 0 0);
    }
    outlet
    {
        type            zeroGradient;
    }
    bottom
    {
        type            symmetryPlane;
    }
    top
    {
        type            symmetryPlane;
    }
    obstacle
    {
        type            slip;
    }
    defaultFaces
    {
        type            empty;
    }
}


// ************************************************************************* //
