/*--------------------------------*- C++ -*----------------------------------*\
| =========                 |                                                 |
| \\      /  F ield         | OpenFOAM: The Open Source CFD Toolbox           |
|  \\    /   O peration     | Version:  2206                                  |
|   \\  /    A nd           | Website:  www.openfoam.com                      |
|    \\/     M anipulation  |                                                 |
\*---------------------------------------------------------------------------*/
FoamFile
{
    version     2.0;
    format      ascii;
    arch        "LSB;label=32;scalar=64";
    class       volScalarField;
    location    "0.1";
    object      rho;
}
// * * * * * * * * * * * * * * * * * * * * * * * * * * * * * * * * * * * * * //

dimensions      [1 -3 0 0 0 0 0];

internalField   nonuniform List<scalar> 
4800
(
1.40001
1.40001
1.40001
1.40001
1.40001
1.40001
1.40001
1.40001
1.40001
1.40001
1.40001
1.40001
1.40001
1.40001
1.40001
1.40001
1.40001
1.40001
1.40001
1.40001
1.40001
1.40001
1.40001
1.40001
1.40001
1.40001
1.40001
1.40001
1.40001
1.40001
1.40001
1.40001
1.40001
1.40001
1.40001
1.40001
1.40001
1.40001
1.40001
1.40001
1.40001
1.40001
1.40001
1.40001
1.40001
1.40001
1.40001
1.40001
1.40001
1.40001
1.40001
1.40001
1.40001
1.40001
1.40001
1.40001
1.40001
1.40001
1.40001
1.40001
1.40001
1.40001
1.40001
1.40001
1.40001
1.40001
1.40001
1.40001
1.40001
1.40001
1.40001
1.40001
1.40001
1.40001
1.40001
1.40001
1.40001
1.40001
1.40001
1.40001
1.40001
1.40001
1.40001
1.40001
1.40001
1.40001
1.40001
1.40001
1.40001
1.40001
1.40001
1.40001
1.40001
1.40001
1.40001
1.40001
1.40001
1.40001
1.40001
1.40001
1.40001
1.40001
1.40001
1.40001
1.40001
1.40001
1.40001
1.40001
1.40001
1.40001
1.40001
1.40001
1.40001
1.40001
1.40001
1.40001
1.40001
1.40001
1.40001
1.40001
1.40001
1.40001
1.40001
1.40001
1.40001
1.40001
1.40001
1.40001
1.40001
1.40001
1.40001
1.40001
1.40001
1.40001
1.40001
1.40001
1.40001
1.40001
1.40001
1.40001
1.40001
1.40001
1.40001
1.40001
1.40001
1.40001
1.40001
1.40001
1.40001
1.40001
1.40001
1.40001
1.40001
1.40001
1.40001
1.40001
1.40001
1.40001
1.40001
1.40001
1.40001
1.40001
1.40001
1.40001
1.40001
1.40001
1.40001
1.40001
1.40001
1.40001
1.40001
1.40001
1.40001
1.40001
1.40001
1.40001
1.40001
1.40001
1.40001
1.40001
1.40001
1.40001
1.40001
1.40001
1.40001
1.40001
1.40001
1.40001
1.40001
1.40001
1.40001
1.40001
1.40001
1.40001
1.40001
1.40001
1.40001
1.40001
1.40001
1.40001
1.40001
1.40001
1.40001
1.40001
1.40001
1.40001
1.40001
1.40001
1.40001
1.40001
1.40001
1.40001
1.40001
1.40001
1.40001
1.40001
1.40001
1.40001
1.40001
1.40001
1.40001
1.40001
1.40001
1.40001
1.40001
1.40001
1.40001
1.40001
1.40001
1.40001
1.40001
1.40001
1.40001
1.40001
1.40001
1.40001
1.40001
1.40001
1.40001
1.40001
1.40001
1.40001
1.40001
1.40001
1.40001
1.40001
1.40001
1.40001
1.40001
1.40001
1.40001
1.40001
1.40001
1.40001
1.40001
1.40001
1.40001
1.40001
1.40001
1.40001
1.40001
1.40001
1.40001
1.40001
1.40001
1.40001
1.40001
1.40001
1.40001
1.40001
1.40001
1.40001
1.40001
1.40001
1.40001
1.40001
1.40001
1.40001
1.40001
1.40001
1.40001
1.40001
1.40001
1.40001
1.40001
1.40001
1.40001
1.40001
1.40001
1.40001
1.40001
1.40001
1.40001
1.40001
1.40001
1.40001
1.40001
1.40001
1.40001
1.40001
1.40001
1.40001
1.40001
1.40001
1.40001
1.40001
1.40001
1.40001
1.40001
1.40001
1.40001
1.40001
1.40001
1.40001
1.40001
1.40001
1.40001
1.40001
1.40001
1.40001
1.40001
1.40001
1.40001
1.40001
1.40001
1.40001
1.40001
1.40001
1.40001
1.40001
1.40001
1.40001
1.40001
1.40001
1.40001
1.40001
1.40001
1.40001
1.40001
1.40001
1.40001
1.40001
1.40001
1.40001
1.40001
1.40001
1.40001
1.40001
1.40001
1.40001
1.40001
1.40001
1.40001
1.40001
1.40001
1.40001
1.40001
1.40001
1.40001
1.40001
1.40001
1.40001
1.40001
1.40001
1.40001
1.40001
1.40001
1.40001
1.40001
1.40001
1.40001
1.40001
1.40001
1.40001
1.40001
1.40001
1.40001
1.40001
1.40001
1.40001
1.40001
1.40001
1.40001
1.40001
1.40001
1.40001
1.40001
1.40001
1.40001
1.40001
1.40001
1.40001
1.40001
1.40001
1.40001
1.40001
1.40001
1.40001
1.40001
1.40001
1.40001
1.40001
1.40001
1.40001
1.40001
1.40001
1.40001
1.40001
1.40001
1.40001
1.40001
1.40001
1.40001
1.40001
1.40001
1.40001
1.40001
1.40001
1.40001
1.40001
1.40001
1.40001
1.40001
1.40001
1.40001
1.40001
1.40001
1.40001
1.40001
1.40001
1.40001
1.40001
1.40001
1.40001
1.40001
1.40001
1.40001
1.40001
1.40001
1.40001
1.40001
1.40001
1.40001
1.40001
1.40001
1.40001
1.40001
1.40001
1.40001
1.40001
1.40001
1.40001
1.40001
1.40001
1.40001
1.40001
1.40001
1.40001
1.40001
1.40001
1.40001
1.40001
1.40001
1.40001
1.40001
1.40001
1.40001
1.40001
1.40001
1.40001
1.40001
1.40001
1.40001
1.40001
1.40001
1.40001
1.40001
1.40001
1.40001
1.40001
1.40001
1.40001
1.40001
1.40001
1.40001
1.40001
1.40001
1.40001
1.40001
1.40001
1.40001
1.40001
1.40001
1.40001
1.40001
1.40001
1.40001
1.40001
1.40001
1.40001
1.40001
1.40001
1.40001
1.40001
1.40001
1.40001
1.40001
1.40001
1.40001
1.40001
1.40001
1.40001
1.40001
1.40001
1.40001
1.40001
1.40001
1.40001
1.40001
1.40001
1.40001
1.40001
1.40001
1.40001
1.40001
1.40001
1.40001
1.40001
1.40001
1.40001
1.40001
1.40001
1.40001
1.40001
1.40001
1.40001
1.40001
1.40001
1.40001
1.40001
1.40001
1.40001
1.40001
1.40001
1.40001
1.40001
1.40001
1.40001
1.40001
1.40001
1.40001
1.40001
1.40001
1.40001
1.40001
1.40001
1.40001
1.40001
1.40001
1.40001
1.40001
1.40001
1.40001
1.40001
1.40001
1.40001
1.40001
1.40001
1.40001
1.40001
1.40001
1.40001
1.40001
1.40001
1.40001
1.40001
1.40001
1.40001
1.40001
1.40001
1.40001
1.40001
1.40001
1.40001
1.40001
1.40001
1.40001
1.40001
1.40001
1.40001
1.40001
1.40001
1.40001
1.40001
1.40001
1.40001
1.40001
1.40001
1.40001
1.40001
1.40001
1.40001
1.40001
1.40001
1.40001
1.40001
1.40001
1.40001
1.40001
1.40001
1.40001
1.40001
1.40001
1.40001
1.40001
1.40001
1.40001
1.40001
1.40001
1.40001
1.40001
1.40001
1.40001
1.40001
1.40001
1.40001
1.40001
1.40001
1.40001
1.40001
1.40001
1.40001
1.40001
1.40001
1.40001
1.40001
1.40001
1.40001
1.40001
1.40001
1.40001
1.40001
1.40001
1.40001
1.40001
1.40001
1.40001
1.40001
1.40001
1.40001
1.40001
1.40001
1.40001
1.40001
1.40001
1.40001
1.40001
1.40001
1.40001
1.40001
1.40001
1.40001
1.40001
1.40001
1.40001
1.40001
1.40001
1.40001
1.40001
1.40001
1.40001
1.40001
1.40001
1.40001
1.40001
1.40001
1.40001
1.40001
1.40001
1.40001
1.40001
1.40001
1.40001
1.40001
1.40001
1.40001
1.40001
1.40001
1.40001
1.40001
1.40001
1.40001
1.40001
1.40001
1.40001
1.40001
1.40001
1.40001
1.40001
1.40001
1.40001
1.40001
1.40001
1.40001
1.40001
1.40001
1.40001
1.40001
1.40001
1.40001
1.40001
1.40001
1.40001
1.40001
1.40001
1.40001
1.40001
1.40001
1.40001
1.40001
1.40001
1.40001
1.40001
1.40001
1.40001
1.40001
1.40001
1.40001
1.40001
1.40001
1.40001
1.40001
1.40001
1.40001
1.40001
1.40001
1.40001
1.40001
1.40001
1.40001
1.40001
1.40001
1.40001
1.40001
1.40001
1.40001
1.40001
1.40001
1.40001
1.40001
1.40001
1.40001
1.40001
1.40001
1.40001
1.40001
1.40001
1.40001
1.40001
1.40001
1.40001
1.40001
1.40001
1.40001
1.40001
1.40001
1.40001
1.40001
1.40001
1.40001
1.40001
1.40001
1.40001
1.40001
1.40001
1.40001
1.40001
1.40001
1.40001
1.40001
1.40001
1.40001
1.40001
1.40001
1.40001
1.40001
1.40001
1.40001
1.40001
1.40001
1.40001
1.40001
1.40001
1.40001
1.40001
1.40001
1.40001
1.40001
1.40001
1.40001
1.40001
1.40001
1.40001
1.40001
1.40001
1.40001
1.40001
1.40001
1.40001
1.40001
1.40001
1.40001
1.40001
1.40001
1.40001
1.40001
1.40001
1.40001
1.40001
1.40001
1.40001
1.40001
1.40001
1.40001
1.40001
1.40001
1.40001
1.40001
1.40001
1.40001
1.40001
1.40001
1.40001
1.40001
1.40001
1.40001
1.40001
1.40001
1.40001
1.40001
1.40001
1.40001
1.40001
1.40001
1.40001
1.40001
1.40001
1.40001
1.40001
1.40001
1.40001
1.40001
1.40001
1.40001
1.40001
1.40001
1.40001
1.40001
1.40001
1.40001
1.40001
1.40001
1.40001
1.40001
1.40001
1.40001
1.40001
1.40001
1.40001
1.40001
1.40001
1.40001
1.40001
1.40001
1.40001
1.40001
1.40001
1.40001
1.40001
1.40001
1.40001
1.40001
1.40001
1.40001
1.40001
1.40001
1.40001
1.40001
1.40001
1.40001
1.40001
1.40001
1.40001
1.40001
1.40001
1.40001
1.40001
1.40001
1.40001
1.40001
1.40001
1.40001
1.40001
1.40001
1.40001
1.40001
1.40001
1.40001
1.40001
1.40001
1.40001
1.40001
1.40001
1.40001
1.40001
1.40001
1.40001
1.40001
1.40001
1.40001
1.40001
1.40001
1.40001
1.40001
1.40001
1.40001
1.40001
1.40001
1.40001
1.40001
1.40001
1.40001
1.40001
1.40001
1.40001
1.40001
1.40001
1.40001
1.40001
1.40001
1.40001
1.40001
1.40001
1.40001
1.40001
1.40001
1.40001
1.40001
1.40001
1.40001
1.40001
1.40001
1.40001
1.40001
1.40001
1.40001
1.40001
1.40001
1.40001
1.40001
1.40001
1.40001
1.40001
1.40001
1.40001
1.40001
1.40001
1.40001
1.40001
1.40001
1.40001
1.40001
1.40001
1.40001
1.40001
1.40001
1.40001
1.40001
1.40001
1.40001
1.40001
1.40001
1.40001
1.40001
1.40001
1.40001
1.40001
1.40001
1.40001
1.40001
1.40001
1.40001
1.40001
1.40001
1.40001
1.40001
1.40001
1.40001
1.40001
1.40001
1.40001
1.40001
1.40001
1.40001
1.40001
1.40001
1.40001
1.40001
1.40001
1.40001
1.40001
1.40001
1.40001
1.40001
1.40001
1.40001
1.40001
1.40001
1.40001
1.40001
1.40001
1.40001
1.40001
1.40001
1.40001
1.40001
1.40001
1.40001
1.40001
1.40001
1.40001
1.40001
1.40001
1.40001
1.40001
1.40001
1.40001
1.40001
1.40001
1.40001
1.40001
1.40001
1.40001
1.40001
1.40001
1.40001
1.40001
1.40001
1.40001
1.40001
1.40001
1.40001
1.40001
1.40001
1.40001
1.40001
1.40001
1.40001
1.40001
1.40001
1.40001
1.40001
1.40001
1.40001
1.40001
1.40001
1.40001
1.40001
1.40001
1.40001
1.40001
1.40001
1.40001
1.40001
1.40001
1.40001
1.40001
1.40001
1.40001
1.40001
1.40001
1.40001
1.40001
1.40001
1.40001
1.40001
1.40001
1.40001
1.40001
1.40001
1.40001
1.40001
1.40001
1.40001
1.40001
1.40001
1.40001
1.40001
1.40001
1.40001
1.40001
1.40001
1.40001
1.40001
1.40001
1.40001
1.40001
1.40001
1.40001
1.40001
1.40001
1.40001
1.40001
1.40001
1.40001
1.40001
1.40001
1.40001
1.40001
1.40001
1.40001
1.40001
1.40001
1.40001
1.40001
1.40001
1.40001
1.40001
1.40001
1.40001
1.40001
1.40001
1.40001
1.40001
1.40001
1.40001
1.40001
1.40001
1.40001
1.40001
1.40001
1.40001
1.40001
1.40001
1.40001
1.40001
1.40001
1.40001
1.40001
1.40001
1.40001
1.40001
1.40001
1.40001
1.40001
1.40001
1.40001
1.40001
1.40001
1.40001
1.40001
1.40001
1.40001
1.40001
1.40001
1.40001
1.40001
1.40001
1.40001
1.40001
1.40001
1.40001
1.40001
1.40001
1.40001
1.40001
1.40001
1.40001
1.40001
1.40001
1.40001
1.40001
1.40001
1.40001
1.40001
1.40001
1.40001
1.40001
1.40001
1.40001
1.40001
1.40001
1.40001
1.40001
1.40001
1.40001
1.40001
1.40001
1.40001
1.40001
1.40001
1.40001
1.40001
1.40001
1.40001
1.40001
1.40001
1.40001
1.40001
1.40001
1.40001
1.40001
1.40001
1.40001
1.40001
1.40001
1.40001
1.40001
1.40001
1.40001
1.40001
1.40001
1.40001
1.40001
1.40001
1.40001
1.40001
1.40001
1.40001
1.40001
1.40001
1.40001
1.40001
1.40001
1.40001
1.40001
1.40001
1.40001
1.40001
1.40001
1.40001
1.40001
1.40001
1.40001
1.40001
1.40001
1.40001
1.40001
1.40001
1.40001
1.40001
1.40001
1.40001
1.40001
1.40001
1.40001
1.40001
1.40001
1.40001
1.40001
1.40001
1.40001
1.40001
1.40001
1.40001
1.40001
1.40001
1.40001
1.40001
1.40001
1.40001
1.40001
1.40001
1.40001
1.40001
1.40001
1.40001
1.40001
1.40001
1.40001
1.40001
1.40001
1.40001
1.40001
1.40001
1.40001
1.40001
1.40001
1.40001
1.40001
1.40001
1.40001
1.40001
1.40001
1.40001
1.40001
1.40001
1.40001
1.40001
1.40001
1.40001
1.40001
1.40001
1.40001
1.40001
1.40001
1.40001
1.40001
1.40001
1.40001
1.40001
1.40001
1.40001
1.40001
1.40001
1.40001
1.40001
1.40001
1.40001
1.40001
1.40001
1.40001
1.40001
1.40001
1.40001
1.40001
1.40001
1.40001
1.40001
1.40001
1.40001
1.40001
1.40001
1.40001
1.40001
1.40001
1.40001
1.40001
1.40001
1.40001
1.40001
1.40001
1.40001
1.40001
1.40001
1.40001
1.40001
1.40001
1.40001
1.40001
1.40001
1.40001
1.40001
1.40001
1.40001
1.40001
1.40001
1.40001
1.40001
1.40001
1.40001
1.40001
1.40001
1.40001
1.40001
1.40001
1.40001
1.40001
1.40001
1.40001
1.40001
1.40001
1.40001
1.40001
1.40001
1.40001
1.40001
1.40001
1.40001
1.40001
1.40001
1.40001
1.40001
1.40001
1.40001
1.40001
1.40001
1.40001
1.40001
1.40001
1.40001
1.40001
1.40001
1.40001
1.40001
1.40001
1.40001
1.40001
1.40001
1.40001
1.40001
1.40001
1.40001
1.40001
1.40001
1.40001
1.40001
1.40001
1.40001
1.40001
1.40001
1.40001
1.40001
1.40001
1.40001
1.40001
1.40001
1.40001
1.40001
1.40001
1.40001
1.40001
1.40001
1.40001
1.40001
1.40001
1.40001
1.40001
1.40001
1.40001
1.40001
1.40001
1.40001
1.40001
1.40001
1.40001
1.40001
1.40001
1.40001
1.40001
1.40001
1.40001
1.40001
1.40001
1.40001
1.40001
1.40001
1.40001
1.40001
1.40001
1.40001
1.40001
1.40001
1.40001
1.40001
1.40001
1.40001
1.40001
1.40001
1.40001
1.40001
1.40001
1.40001
1.40001
1.40001
1.40001
1.40001
1.40001
1.40001
1.40001
1.40001
1.40001
1.40001
1.40001
1.40001
1.40001
1.40001
1.40001
1.40001
1.40001
1.40001
1.40001
1.40001
1.40001
1.40001
1.40001
1.40001
1.40001
1.40001
1.40001
1.40001
1.40001
1.40001
1.40001
1.40001
1.40001
1.40001
1.40001
1.40001
1.40001
1.40001
1.40001
1.40001
1.40001
1.40001
1.40001
1.40001
1.40001
1.40001
1.40001
1.40001
1.40001
1.40001
1.40001
1.40001
1.40001
1.40001
1.40001
1.40001
1.40001
1.40001
1.40001
1.40001
1.40001
1.40001
1.40001
1.40001
1.40001
1.40001
1.40001
1.40001
1.40001
1.40001
1.40001
1.40001
1.40001
1.40001
1.40001
1.40001
1.40001
1.40001
1.40001
1.40001
1.40001
1.40001
1.40001
1.40001
1.40001
1.40001
1.40001
1.40001
1.40001
1.40001
1.40001
1.40001
1.40001
1.40001
1.40001
1.40001
1.40001
1.40001
1.40001
1.40001
1.40001
1.40001
1.40001
1.40001
1.40001
1.40001
1.40001
1.40001
1.40001
1.40001
1.40001
1.40001
1.40001
1.40001
1.40001
1.40001
1.40001
1.40001
1.40001
1.40001
1.40001
1.40001
1.40001
1.40001
1.40001
1.40001
1.40001
1.40001
1.40001
1.40001
1.40001
1.40001
1.40001
1.40001
1.40001
1.40001
1.40001
1.65585
2.03059
2.44102
2.78921
3.14309
3.46855
3.65944
3.89015
4.02621
4.00372
3.92427
3.77369
3.58204
3.38614
3.26321
3.18658
3.12639
3.10486
3.10832
3.12616
3.15147
3.16959
3.18255
3.19453
3.20383
3.21159
3.21852
3.22506
3.23286
3.23427
3.23379
3.23066
3.22342
3.21501
3.20908
3.20743
3.20793
3.20931
3.21074
3.21049
3.20984
3.21121
3.21522
3.21974
3.22463
3.2298
3.23391
3.23509
3.23451
3.23256
3.22771
3.22074
3.21461
3.21158
3.20929
3.20495
3.19655
3.18448
3.17051
3.15436
3.13649
3.11876
3.10671
3.10248
3.10042
3.09902
3.09693
3.09386
3.08945
3.08432
3.07928
3.07369
3.06702
3.06238
3.05938
3.05593
3.0528
3.05014
3.04851
3.04711
1.40403
1.41513
1.45802
1.56128
1.69571
1.91569
2.18463
2.4793
2.77269
3.0286
3.22543
3.27468
3.4096
3.4028
3.35401
3.33451
3.30193
3.25937
3.22233
3.20091
3.18067
3.1623
3.16125
3.16699
3.17884
3.18976
3.19807
3.20474
3.21301
3.21666
3.2181
3.21773
3.2149
3.21429
3.21561
3.21797
3.21892
3.21894
3.21779
3.21463
3.21074
3.20868
3.20907
3.21038
3.21183
3.21316
3.21524
3.21778
3.21903
3.21927
3.21859
3.21618
3.21541
3.21476
3.21319
3.20841
3.19905
3.1855
3.16946
3.1515
3.13299
3.11673
3.1051
3.09868
3.09546
3.09357
3.09189
3.08926
3.08546
3.08076
3.07588
3.07056
3.06493
3.06192
3.0598
3.05697
3.05373
3.05015
3.04761
3.04551
1.40001
1.4
1.4
1.40035
1.40209
1.41038
1.44283
1.51386
1.69594
1.97428
2.4185
2.88233
3.21147
3.41924
3.43281
3.44371
3.43232
3.39295
3.33049
3.23757
3.17113
3.14067
3.14232
3.14759
3.15703
3.17091
3.17284
3.17113
3.17208
3.17686
3.18399
3.19339
3.20033
3.20416
3.20818
3.21278
3.21458
3.21484
3.21421
3.21254
3.2096
3.20579
3.20379
3.20286
3.20142
3.19981
3.19878
3.19849
3.19891
3.19989
3.20127
3.20348
3.20714
3.21022
3.20896
3.20402
3.19454
3.18073
3.16391
3.14579
3.12778
3.11293
3.1034
3.09634
3.09183
3.08864
3.08584
3.08295
3.07918
3.07449
3.06996
3.0654
3.06097
3.05901
3.05777
3.0557
3.05321
3.0508
3.04874
3.04638
1.40001
1.4
1.4
1.4
1.4
1.40001
1.40003
1.40013
1.40201
1.41267
1.47202
1.68814
2.02933
2.5574
2.8986
3.17137
3.28076
3.27673
3.28458
3.29412
3.2721
3.23058
3.20702
3.18645
3.17243
3.15329
3.12945
3.12785
3.13155
3.14016
3.15203
3.16339
3.17142
3.17744
3.18449
3.19116
3.19654
3.20155
3.20323
3.20266
3.20036
3.19694
3.19546
3.19451
3.19171
3.18818
3.18695
3.18642
3.18668
3.18763
3.18882
3.19052
3.19301
3.19509
3.19401
3.18964
3.18103
3.16739
3.15036
3.13259
3.11587
3.10406
3.09634
3.08908
3.08262
3.079
3.07651
3.07348
3.06921
3.06408
3.05917
3.05527
3.05332
3.05273
3.05254
3.05135
3.04928
3.04708
3.0454
3.04377
1.40001
1.40001
1.40001
1.40001
1.4
1.4
1.4
1.4
1.40001
1.40001
1.40002
1.4023
1.4197
1.5265
1.81477
2.20294
2.66956
2.96554
3.22517
3.31572
3.30719
3.29789
3.28024
3.24771
3.18889
3.15204
3.12791
3.12311
3.12421
3.12745
3.13548
3.14554
3.14543
3.14806
3.15377
3.15953
3.16583
3.17365
3.17932
3.181
3.18203
3.18357
3.18509
3.18508
3.18403
3.18422
3.1847
3.18445
3.18216
3.1819
3.18301
3.18427
3.18529
3.1848
3.18218
3.17618
3.16573
3.14995
3.13061
3.11211
3.09804
3.08818
3.08122
3.07523
3.07175
3.07007
3.06813
3.0647
3.05961
3.05434
3.04858
3.04424
3.04268
3.042
3.04173
3.0414
3.0405
3.03948
3.03886
3.03865
1.40001
1.40001
1.40001
1.40001
1.40001
1.40001
1.40001
1.40001
1.40001
1.4
1.4
1.40001
1.39999
1.40031
1.40706
1.4415
1.61181
1.95049
2.39337
2.76985
3.00652
3.17771
3.19008
3.19949
3.21465
3.21217
3.19672
3.1792
3.16812
3.15563
3.14801
3.13974
3.13158
3.1317
3.1389
3.14555
3.15029
3.15466
3.15769
3.15855
3.16038
3.16395
3.17013
3.17643
3.17975
3.18193
3.18368
3.18446
3.18317
3.18163
3.18152
3.18187
3.18151
3.17923
3.17457
3.16682
3.15455
3.13649
3.11439
3.09514
3.08265
3.07369
3.0671
3.06338
3.06191
3.06102
3.05949
3.05605
3.05073
3.04571
3.03956
3.03556
3.03402
3.03294
3.03158
3.02989
3.02889
3.02849
3.0287
3.0311
1.40001
1.40001
1.40001
1.40001
1.40001
1.40001
1.40001
1.40001
1.40001
1.40001
1.40001
1.40001
1.4
1.4
1.40001
1.40001
1.40143
1.4179
1.48703
1.74974
2.12229
2.59992
2.88163
3.08763
3.20855
3.22865
3.23306
3.22424
3.20825
3.18176
3.16137
3.1498
3.14965
3.14892
3.1442
3.14135
3.14086
3.1427
3.14745
3.1487
3.15002
3.15241
3.15589
3.16215
3.16861
3.17336
3.17703
3.17973
3.18119
3.18075
3.17886
3.17707
3.17496
3.1717
3.1664
3.15816
3.14544
3.12712
3.10638
3.08739
3.07516
3.06722
3.06154
3.05802
3.05646
3.05532
3.0534
3.04919
3.04378
3.03875
3.03256
3.02847
3.02685
3.02563
3.02435
3.02274
3.0211
3.01973
3.01929
3.02265
1.40001
1.40001
1.40001
1.40001
1.40001
1.40001
1.40001
1.40001
1.40001
1.40001
1.40001
1.40001
1.40001
1.40001
1.4
1.4
1.40001
1.4
1.40019
1.40649
1.43924
1.57793
1.93088
2.34827
2.75005
2.94272
3.11142
3.12879
3.14509
3.17049
3.1837
3.18417
3.18524
3.18165
3.17523
3.16856
3.16298
3.16036
3.15975
3.15854
3.15747
3.15831
3.15859
3.15892
3.16234
3.16598
3.16725
3.16783
3.16862
3.16898
3.16921
3.16979
3.16992
3.16815
3.16403
3.15687
3.14483
3.12745
3.10761
3.08685
3.074
3.06821
3.06192
3.05768
3.0553
3.05334
3.05048
3.0455
3.04013
3.03466
3.02815
3.02412
3.02241
3.02113
3.02015
3.01901
3.01754
3.01577
3.01517
3.0175
1.40001
1.40001
1.40001
1.40001
1.40001
1.40001
1.40001
1.40001
1.40001
1.40001
1.40001
1.40001
1.40001
1.40001
1.40001
1.40001
1.40001
1.4
1.4
1.4
1.40003
1.40132
1.42079
1.48932
1.73256
2.1217
2.61109
2.88631
3.04265
3.16363
3.18225
3.18522
3.18477
3.19133
3.18979
3.18058
3.17344
3.17465
3.18016
3.18838
3.19229
3.19094
3.18212
3.17382
3.17138
3.16938
3.16747
3.16552
3.16323
3.16263
3.16332
3.16553
3.16725
3.16585
3.1618
3.15484
3.14349
3.12768
3.10939
3.087
3.07565
3.06979
3.06382
3.05918
3.05595
3.05286
3.04844
3.04244
3.03692
3.03081
3.02396
3.02081
3.01918
3.01799
3.01758
3.01869
3.02053
3.01954
3.01664
3.0149
1.40001
1.40001
1.40001
1.40001
1.40001
1.40001
1.40001
1.40001
1.40001
1.40001
1.40001
1.40001
1.40001
1.40001
1.40001
1.40001
1.40001
1.40001
1.40001
1.4
1.4
1.40001
1.40001
1.40031
1.40714
1.45025
1.59264
1.97797
2.40558
2.83729
2.97877
3.07466
3.11241
3.12822
3.1415
3.1487
3.16845
3.18038
3.18803
3.19629
3.20095
3.20166
3.1972
3.19371
3.19408
3.19273
3.18904
3.18356
3.17575
3.17008
3.16873
3.16885
3.17011
3.16847
3.16391
3.15619
3.14349
3.12737
3.10914
3.08668
3.0763
3.07041
3.06463
3.06025
3.0569
3.05286
3.04694
3.0405
3.03467
3.02612
3.02003
3.01729
3.01484
3.01327
3.01306
3.0157
3.01947
3.02178
3.02212
3.02035
1.40001
1.40001
1.40001
1.40001
1.40001
1.40001
1.40001
1.40001
1.40001
1.40001
1.40001
1.40001
1.40001
1.40001
1.40001
1.40001
1.40001
1.40001
1.40001
1.40001
1.40001
1.40001
1.4
1.4
1.4
1.40011
1.40204
1.43316
1.53255
1.80334
2.22468
2.70418
3.02597
3.07767
3.1171
3.12604
3.14096
3.15214
3.15285
3.1638
3.17982
3.18702
3.18943
3.19193
3.19424
3.19825
3.20065
3.19998
3.1968
3.19156
3.18826
3.18691
3.18467
3.1802
3.17327
3.1629
3.14773
3.12992
3.11052
3.08906
3.07566
3.06889
3.0635
3.05936
3.05567
3.05094
3.04402
3.03806
3.03175
3.0259
3.02052
3.01648
3.01328
3.01106
3.01036
3.01131
3.01536
3.02004
3.02243
3.02502
1.40001
1.40001
1.40001
1.40001
1.40001
1.40001
1.40001
1.40001
1.40001
1.40001
1.40001
1.40001
1.40001
1.40001
1.40001
1.40001
1.40001
1.40001
1.40001
1.40001
1.40001
1.40001
1.40001
1.40001
1.4
1.4
1.4
1.40006
1.40098
1.413
1.48973
1.6884
2.10989
2.55815
2.96037
3.10457
3.1343
3.16532
3.15491
3.15581
3.15456
3.15425
3.16113
3.16818
3.17334
3.18143
3.19173
3.2005
3.2027
3.20146
3.19907
3.19855
3.19696
3.19215
3.18432
3.1727
3.15622
3.13764
3.1179
3.09676
3.08207
3.0739
3.06792
3.06323
3.05825
3.05193
3.04564
3.04069
3.03552
3.03081
3.02815
3.02573
3.02142
3.01583
3.01245
3.01133
3.01207
3.0153
3.02026
3.02683
1.40001
1.40001
1.40001
1.40001
1.40001
1.40001
1.40001
1.40001
1.40001
1.40001
1.40001
1.40001
1.40001
1.40001
1.40001
1.40001
1.40001
1.40001
1.40001
1.40001
1.40001
1.40001
1.40001
1.40001
1.40001
1.40001
1.4
1.4
1.4
1.40001
1.40054
1.40587
1.46474
1.63782
2.00945
2.4526
2.86687
3.11682
3.16928
3.19921
3.19013
3.16667
3.16752
3.16823
3.16727
3.17018
3.17613
3.18336
3.19009
3.19481
3.19859
3.20171
3.20081
3.19597
3.18697
3.17458
3.15939
3.14244
3.12297
3.1016
3.08572
3.07648
3.07082
3.06621
3.06029
3.05289
3.04609
3.04061
3.03612
3.0331
3.03151
3.03183
3.03158
3.02754
3.022
3.01749
3.01548
3.01506
3.01846
3.0284
1.40001
1.40001
1.40001
1.40001
1.40001
1.40001
1.40001
1.40001
1.40001
1.40001
1.40001
1.40001
1.40001
1.40001
1.40001
1.40001
1.40001
1.40001
1.40001
1.40001
1.40001
1.40001
1.40001
1.40001
1.40001
1.40001
1.40001
1.40001
1.4
1.4
1.40001
1.4
1.40037
1.40422
1.44218
1.59858
1.91929
2.3916
2.81028
3.08565
3.16295
3.19439
3.21436
3.20912
3.20078
3.19481
3.18707
3.1816
3.18463
3.19216
3.19609
3.19731
3.19663
3.19278
3.18475
3.17332
3.15969
3.14447
3.12592
3.10505
3.08885
3.07994
3.07499
3.07037
3.06369
3.05542
3.04788
3.04128
3.03712
3.03454
3.03332
3.03396
3.0372
3.03838
3.03496
3.03008
3.02635
3.0243
3.02449
3.03162
1.40001
1.40001
1.40001
1.40001
1.40001
1.40001
1.40001
1.40001
1.40001
1.40001
1.40001
1.40001
1.40001
1.40001
1.40001
1.40001
1.40001
1.40001
1.40001
1.40001
1.40001
1.40001
1.40001
1.40001
1.40001
1.40001
1.40001
1.40001
1.40001
1.40001
1.40001
1.4
1.4
1.4
1.40017
1.40322
1.42747
1.58564
1.90424
2.34652
2.74711
3.06574
3.16747
3.19786
3.2217
3.2258
3.22405
3.21616
3.20944
3.20987
3.21142
3.20972
3.2048
3.19841
3.18906
3.17649
3.16256
3.14806
3.13122
3.11235
3.0962
3.08693
3.08148
3.07614
3.06965
3.06331
3.05729
3.04991
3.04303
3.03852
3.03562
3.03428
3.03594
3.04216
3.04478
3.04198
3.03883
3.03689
3.03563
3.03751
1.40001
1.40001
1.40001
1.40001
1.40001
1.40001
1.40001
1.40001
1.40001
1.40001
1.40001
1.40001
1.40001
1.40001
1.40001
1.40001
1.40001
1.40001
1.40001
1.40001
1.40001
1.40001
1.40001
1.40001
1.40001
1.40001
1.40001
1.40001
1.40001
1.40001
1.40001
1.40001
1.40001
1.4
1.4
1.4
1.40009
1.40344
1.42495
1.56302
1.90121
2.39411
2.73965
3.00715
3.15054
3.19758
3.216
3.22713
3.22731
3.22472
3.22578
3.22508
3.21881
3.20949
3.19886
3.1864
3.17225
3.15674
3.13998
3.12204
3.10559
3.09405
3.08547
3.07743
3.07144
3.06782
3.06483
3.06105
3.05557
3.04759
3.04062
3.03698
3.03589
3.04104
3.04996
3.05208
3.04912
3.04642
3.04442
3.04451
1.40001
1.40001
1.40001
1.40001
1.40001
1.40001
1.40001
1.40001
1.40001
1.40001
1.40001
1.40001
1.40001
1.40001
1.40001
1.40001
1.40001
1.40001
1.40001
1.40001
1.40001
1.40001
1.40001
1.40001
1.40001
1.40001
1.40001
1.40001
1.40001
1.40001
1.40001
1.40001
1.40001
1.40001
1.40001
1.4
1.4
1.4
1.40007
1.40324
1.42786
1.55842
1.94003
2.47292
2.80778
2.99792
3.11374
3.1734
3.19124
3.19614
3.20743
3.21455
3.2131
3.20719
3.19864
3.18896
3.176
3.15944
3.14195
3.12512
3.10989
3.09666
3.08546
3.07596
3.06964
3.06633
3.06382
3.06387
3.06581
3.06101
3.05224
3.04542
3.04264
3.04234
3.04921
3.05915
3.05922
3.05571
3.05259
3.05094
1.40001
1.40001
1.40001
1.40001
1.40001
1.40001
1.40001
1.40001
1.40001
1.40001
1.40001
1.40001
1.40001
1.40001
1.40001
1.40001
1.40001
1.40001
1.40001
1.40001
1.40001
1.40001
1.40001
1.40001
1.40001
1.40001
1.40001
1.40001
1.40001
1.40001
1.40001
1.40001
1.40001
1.40001
1.40001
1.40001
1.40001
1.4
1.4
1.4
1.4001
1.40323
1.44227
1.58649
1.97407
2.49019
2.96019
3.0679
3.13124
3.1554
3.17906
3.19087
3.19026
3.1869
3.18311
3.17798
3.1688
3.15444
3.13813
3.12325
3.10983
3.09714
3.08342
3.07043
3.06497
3.06251
3.06129
3.06175
3.06553
3.06787
3.06244
3.05532
3.05151
3.04945
3.05022
3.05949
3.06829
3.06696
3.06195
3.05735
1.40001
1.40001
1.40001
1.40001
1.40001
1.40001
1.40001
1.40001
1.40001
1.40001
1.40001
1.40001
1.40001
1.40001
1.40001
1.40001
1.40001
1.40001
1.40001
1.40001
1.40001
1.40001
1.40001
1.40001
1.40001
1.40001
1.40001
1.40001
1.40001
1.40001
1.40001
1.40001
1.40001
1.40001
1.40001
1.40001
1.40001
1.40001
1.4
1.4
1.4
1.4
1.40027
1.40393
1.4541
1.62411
2.06312
2.59653
2.99246
3.16082
3.19503
3.20561
3.20175
3.1935
3.18723
3.1806
3.17133
3.15678
3.13847
3.124
3.11268
3.10172
3.0869
3.06978
3.06165
3.05843
3.05628
3.05553
3.05962
3.06729
3.06736
3.06208
3.05705
3.05442
3.05342
3.05812
3.06959
3.07453
3.07018
3.06277
1.40001
1.40001
1.40001
1.40001
1.40001
1.40001
1.40001
1.40001
1.40001
1.40001
1.40001
1.40001
1.40001
1.40001
1.40001
1.40001
1.40001
1.40001
1.40001
1.40001
1.40001
1.40001
1.40001
1.40001
1.40001
1.40001
1.40001
1.40001
1.40001
1.40001
1.40001
1.40001
1.40001
1.40001
1.40001
1.40001
1.40001
1.40001
1.40001
1.40001
1.4
1.4
1.4
1.40001
1.40052
1.40626
1.47712
1.73141
2.20094
2.6834
3.05861
3.18689
3.21722
3.21831
3.21088
3.196
3.18279
3.16892
3.1502
3.13186
3.11865
3.10678
3.09506
3.08444
3.07472
3.0654
3.05849
3.05514
3.05507
3.06287
3.07154
3.06976
3.06351
3.05772
3.05527
3.05653
3.06574
3.07307
3.07361
3.06863
1.40001
1.40001
1.40001
1.40001
1.40001
1.40001
1.40001
1.40001
1.40001
1.40001
1.40001
1.40001
1.40001
1.40001
1.40001
1.40001
1.40001
1.40001
1.40001
1.40001
1.40001
1.40001
1.40001
1.40001
1.40001
1.40001
1.40001
1.40001
1.40001
1.40001
1.40001
1.40001
1.40001
1.40001
1.40001
1.40001
1.40001
1.40001
1.40001
1.40001
1.40001
1.40001
1.4
1.4
1.4
1.40001
1.40118
1.41409
1.5175
1.87663
2.43208
2.80852
3.03672
3.15758
3.18553
3.17691
3.16451
3.15856
3.149
3.13116
3.11276
3.10045
3.09111
3.08706
3.08368
3.07718
3.06592
3.06028
3.05821
3.06046
3.07045
3.07823
3.07494
3.06607
3.05828
3.05571
3.05723
3.06556
3.07296
3.07228
1.40001
1.40001
1.40001
1.40001
1.40001
1.40001
1.40001
1.40001
1.40001
1.40001
1.40001
1.40001
1.40001
1.40001
1.40001
1.40001
1.40001
1.40001
1.40001
1.40001
1.40001
1.40001
1.40001
1.40001
1.40001
1.40001
1.40001
1.40001
1.40001
1.40001
1.40001
1.40001
1.40001
1.40001
1.40001
1.40001
1.40001
1.40001
1.40001
1.40001
1.40001
1.40001
1.40001
1.40001
1.4
1.4
1.4
1.40005
1.40262
1.4351
1.59329
2.04742
2.66321
3.01716
3.08411
3.10938
3.12626
3.13924
3.13394
3.11436
3.09173
3.07998
3.07563
3.07758
3.08341
3.08051
3.07004
3.06201
3.05901
3.05843
3.06481
3.07684
3.08169
3.07801
3.06865
3.0573
3.05352
3.05554
3.06554
3.07169
1.40001
1.40001
1.40001
1.40001
1.40001
1.40001
1.40001
1.40001
1.40001
1.40001
1.40001
1.40001
1.40001
1.40001
1.40001
1.40001
1.40001
1.40001
1.40001
1.40001
1.40001
1.40001
1.40001
1.40001
1.40001
1.40001
1.40001
1.40001
1.40001
1.40001
1.40001
1.40001
1.40001
1.40001
1.40001
1.40001
1.40001
1.40001
1.40001
1.40001
1.40001
1.40001
1.40001
1.40001
1.40001
1.40001
1.4
1.4
1.40001
1.40027
1.40634
1.48261
1.75453
2.30258
2.8179
3.07705
3.16884
3.1679
3.15944
3.13182
3.09811
3.07674
3.07109
3.0711
3.07934
3.08097
3.07484
3.06585
3.0567
3.05305
3.0538
3.06476
3.07833
3.0826
3.07978
3.07012
3.05678
3.05255
3.05551
3.06643
1.40001
1.40001
1.40001
1.40001
1.40001
1.40001
1.40001
1.40001
1.40001
1.40001
1.40001
1.40001
1.40001
1.40001
1.40001
1.40001
1.40001
1.40001
1.40001
1.40001
1.40001
1.40001
1.40001
1.40001
1.40001
1.40001
1.40001
1.40001
1.40001
1.40001
1.40001
1.40001
1.40001
1.40001
1.40001
1.40001
1.40001
1.40001
1.40001
1.40001
1.40001
1.40001
1.40001
1.40001
1.40001
1.40001
1.40001
1.4
1.4
1.4
1.40003
1.40146
1.42021
1.58976
2.0036
2.51518
2.93985
3.12348
3.13931
3.13634
3.12466
3.10172
3.08382
3.0797
3.07969
3.08403
3.08662
3.08084
3.068
3.0524
3.04723
3.04818
3.05992
3.07597
3.07944
3.07763
3.07059
3.05733
3.05237
3.05701
1.40001
1.40001
1.40001
1.40001
1.40001
1.40001
1.40001
1.40001
1.40001
1.40001
1.40001
1.40001
1.40001
1.40001
1.40001
1.40001
1.40001
1.40001
1.40001
1.40001
1.40001
1.40001
1.40001
1.40001
1.40001
1.40001
1.40001
1.40001
1.40001
1.40001
1.40001
1.40001
1.40001
1.40001
1.40001
1.40001
1.40001
1.40001
1.40001
1.40001
1.40001
1.40001
1.40001
1.40001
1.40001
1.40001
1.40001
1.40001
1.40001
1.4
1.4
1.40001
1.40017
1.40699
1.46179
1.76504
2.32843
2.76481
2.95801
3.05648
3.0977
3.09018
3.07389
3.06987
3.06926
3.07603
3.08579
3.09018
3.08788
3.07853
3.05913
3.04553
3.04529
3.05288
3.07033
3.07564
3.07221
3.0674
3.05727
3.05305
1.40001
1.40001
1.40001
1.40001
1.40001
1.40001
1.40001
1.40001
1.40001
1.40001
1.40001
1.40001
1.40001
1.40001
1.40001
1.40001
1.40001
1.40001
1.40001
1.40001
1.40001
1.40001
1.40001
1.40001
1.40001
1.40001
1.40001
1.40001
1.40001
1.40001
1.40001
1.40001
1.40001
1.40001
1.40001
1.40001
1.40001
1.40001
1.40001
1.40001
1.40001
1.40001
1.40001
1.40001
1.40001
1.40001
1.40001
1.40001
1.40001
1.40001
1.40001
1.40001
1.4
1.40003
1.40106
1.42757
1.56738
2.00903
2.56102
2.9697
3.0373
3.04686
3.04355
3.03988
3.03651
3.04114
3.05065
3.07038
3.08919
3.09331
3.08825
3.07124
3.04667
3.04149
3.04417
3.05638
3.06934
3.0729
3.06971
3.05968
1.40001
1.40001
1.40001
1.40001
1.40001
1.40001
1.40001
1.40001
1.40001