/*--------------------------------*- C++ -*----------------------------------*\
| =========                 |                                                 |
| \\      /  F ield         | OpenFOAM: The Open Source CFD Toolbox           |
|  \\    /   O peration     | Version:  2206                                  |
|   \\  /    A nd           | Website:  www.openfoam.com                      |
|    \\/     M anipulation  |                                                 |
\*---------------------------------------------------------------------------*/
FoamFile
{
    version     2.0;
    format      ascii;
    arch        "LSB;label=32;scalar=64";
    class       volScalarField;
    location    "0.04";
    object      T;
}
// * * * * * * * * * * * * * * * * * * * * * * * * * * * * * * * * * * * * * //

dimensions      [0 0 0 1 0 0 0];

internalField   nonuniform List<scalar> 
75
(
1
1
1
1
1
1
1
1
1
1
1
1
1
1
1
1
1
1
1
1
1
1
1
1
1
1.07388
1.17728
1.29084
1.40252
1.49929
1.57633
1.63831
1.68928
1.73308
1.77966
0.99988
1.00267
1.01747
1.05581
1.11406
1.17507
1.22813
1.27594
1.3178
1.3837
0.999992
0.999992
0.999864
1.00041
1.00059
1.00485
1.00837
1.02002
1.03049
1.08406
1
0.999999
0.999989
0.999994
0.999993
1.00001
0.999984
1.00012
0.999935
1.00154
1
1
1
0.999999
0.999999
1
0.999998
0.999999
0.99999
0.999998
)
;

boundaryField
{
    inlet
    {
        type            fixedValue;
        value           uniform 1;
    }
    outlet
    {
        type            zeroGradient;
    }
    bottom
    {
        type            symmetryPlane;
    }
    top
    {
        type            symmetryPlane;
    }
    obstacle
    {
        type            zeroGradient;
    }
    defaultFaces
    {
        type            empty;
    }
}


// ************************************************************************* //
