/*--------------------------------*- C++ -*----------------------------------*\
| =========                 |                                                 |
| \\      /  F ield         | OpenFOAM: The Open Source CFD Toolbox           |
|  \\    /   O peration     | Version:  2206                                  |
|   \\  /    A nd           | Website:  www.openfoam.com                      |
|    \\/     M anipulation  |                                                 |
\*---------------------------------------------------------------------------*/
FoamFile
{
    version     2.0;
    format      ascii;
    arch        "LSB;label=32;scalar=64";
    class       volVectorField;
    location    "0.08";
    object      U;
}
// * * * * * * * * * * * * * * * * * * * * * * * * * * * * * * * * * * * * * //

dimensions      [0 1 -1 0 0 0 0];

internalField   nonuniform List<vector> 
75
(
(6.15152 3.19514e-15 0)
(6.15152 3.6548e-15 0)
(6.15152 7.22208e-15 0)
(6.15152 7.40211e-15 0)
(6.15152 6.84618e-15 0)
(6.15152 3.33391e-18 0)
(6.15152 3.2939e-15 0)
(6.15152 3.12596e-15 0)
(6.15152 2.66171e-15 0)
(6.15152 2.97647e-15 0)
(6.15152 -3.0822e-15 0)
(6.15152 -2.19955e-15 0)
(6.15152 -4.69039e-15 0)
(6.15152 -4.06987e-15 0)
(6.15152 6.38278e-16 0)
(6.15152 3.14221e-15 0)
(6.15152 5.24049e-15 0)
(6.15152 8.32644e-15 0)
(6.15152 1.09131e-14 0)
(6.15152 1.52066e-14 0)
(6.15152 1.87032e-15 0)
(6.15152 8.60857e-15 0)
(6.15152 1.25559e-14 0)
(6.15152 1.83044e-14 0)
(6.15152 1.81631e-14 0)
(6.12632 0.00217652 0)
(6.08278 0.0615658 0)
(6.03684 0.0954708 0)
(5.97729 0.243471 0)
(5.93469 0.286384 0)
(5.85319 0.508629 0)
(5.82495 0.545571 0)
(5.71326 0.816663 0)
(5.73801 0.850751 0)
(5.5591 1.13028 0)
(6.15152 4.45128e-06 0)
(6.15152 1.26132e-05 0)
(6.15795 -0.0145977 0)
(6.14328 0.0223472 0)
(6.1359 0.0276694 0)
(6.05782 0.21859 0)
(6.01901 0.358702 0)
(5.83147 0.812553 0)
(5.80806 1.05221 0)
(5.48947 1.71135 0)
(6.15152 5.68704e-08 0)
(6.15152 -4.14792e-08 0)
(6.15153 -4.13991e-05 0)
(6.15153 -3.94389e-05 0)
(6.15167 -0.000410058 0)
(6.15141 0.000253998 0)
(6.15418 -0.00828399 0)
(6.14634 0.024085 0)
(6.14189 0.0308718 0)
(5.96327 0.634486 0)
(6.15152 2.43191e-09 0)
(6.15152 2.05179e-09 0)
(6.15151 4.98798e-07 0)
(6.15152 -9.238e-07 0)
(6.15153 -3.92609e-05 0)
(6.15153 -3.8822e-05 0)
(6.15166 -0.000465913 0)
(6.15161 -0.000420625 0)
(6.1517 -0.000459674 0)
(6.13411 0.0828846 0)
(6.15152 -1.29973e-11 0)
(6.15152 1.94976e-10 0)
(6.15152 5.78767e-08 0)
(6.15152 4.32376e-08 0)
(6.15152 2.10733e-07 0)
(6.15152 -6.65208e-06 0)
(6.15152 -2.9421e-06 0)
(6.15153 -5.89598e-05 0)
(6.15159 -0.000153196 0)
(6.15117 0.00156526 0)
)
;

boundaryField
{
    inlet
    {
        type            fixedValue;
        value           uniform (6.15152 0 0);
    }
    outlet
    {
        type            zeroGradient;
    }
    bottom
    {
        type            symmetryPlane;
    }
    top
    {
        type            symmetryPlane;
    }
    obstacle
    {
        type            slip;
    }
    defaultFaces
    {
        type            empty;
    }
}


// ************************************************************************* //
