/*--------------------------------*- C++ -*----------------------------------*\
| =========                 |                                                 |
| \\      /  F ield         | OpenFOAM: The Open Source CFD Toolbox           |
|  \\    /   O peration     | Version:  2206                                  |
|   \\  /    A nd           | Website:  www.openfoam.com                      |
|    \\/     M anipulation  |                                                 |
\*---------------------------------------------------------------------------*/
FoamFile
{
    version     2.0;
    format      ascii;
    arch        "LSB;label=32;scalar=64";
    class       volScalarField;
    location    "0.2";
    object      p;
}
// * * * * * * * * * * * * * * * * * * * * * * * * * * * * * * * * * * * * * //

dimensions      [1 -1 -2 0 0 0 0];

internalField   nonuniform List<scalar> 
4800
(
1
1
1
1
1
1
1
1
1
1
1
1
1
1
1
1
1
1
1
1
1
1
1
1
1
1
1
1
1
1
1
1
1
1
1
1
1
1
1
1
1
1
1
1
1
1
1
1
1
1
1
1
1
1
1
1
1
1
1
1
1
1
1
1
1
1
1
1
1
1
1
1
1
1
1
1
1
1
1
1
1
1
1
1
1
1
1
1
1
1
1
1
1
1
1
1
1
1
1
1
1
1
1
1
1
1
1
1
1
1
1
1
1
1
1
1
1
1
1
1
1
1
1
1
1
1
1
1
1
1
1
1
1
1
1
1
1
1
1
1
1
1
1
1
1
1
1
1
1
1
1
1
1
1
1
1
1
1
1
1
1
1
1
1
1
1
1
1
1
1
1
1
1
1
1
1
1
1
1
1
1
1
1
1
1
1
1
1
1
1
1
1
1
1
1
1
1
1
1
1
1
1
1
1
1
1
1
1
1
1
1
1
1
1
1
1
1
1
1
1
1
1
1
1
1
1
1
1
1
1
1
1
1
1
1
1
1
1
1
1
1
1
1
1
1
1
1
1
1
1
1
1
1
1
1
1
1
1
1
1
1
1
1
1
1
1
1
1
1
1
1
1
1
1
1
1
1
1
1
1
1
1
1
1
1
1
1
1
1
1
1
1
1
1
1
1
1
1
1
1
1
1
1
1
1
1
1
1
1
1
1
1
1
1
1
1
1
1
1
1
1
1
1
1
1
1
1
1
1
1
1
1
1
1
1
1
1
1
1
1
1
1
1
1
1
1
1
1
1
1
1
1
1
1
1
1
1
1
1
1
1
1
1
1
1
1
1
1
1
1
1
1
1
1
1
1
1
1
1
1
1
1
1
1
1
1
1
1
1
1
1
1
1
1
1
1
1
1
1
1
1
1
1
1
1
1
1
1
1
1
1
1
1
1
1
1
1
1
1
1
1
1
1
1
1
1
1
1
1
1
1
1
1
1
1
1
1
1
1
1
1
1
1
1
1
1
1
1
1
1
1
1
1
1
1
1
1
1
1
1
1
1
1
1
1
1
1
1
1
1
1
1
1
1
1
1
1
1
1
1
1
1
1
1
1
1
1
1
1
1
1
1
1
1
1
1
1
1
1
1
1
1
1
1
1
1
1
1
1
1
1
1
1
1
1
1
1
1
1
1
1
1
1
1
1
1
1
1
1
1
1
1
1
1
1
1
1
1
1
1
1
1
1
1
1
1
1
1
1
1
1
1
1
1
1
1
1
1
1
1
1
1
1
1
1
1
1
1
1
1
1
1
1
1
1
1
1
1
1
1
1
1
1
1
1
1
1
1
1
1
1
1
1
1
1
1
1
1
1
1
1
1
1
1
1
1
1
1
1
1
1
1
1
1
1
1
1
1
1
1
1
1
1
1
1
1
1
1
1
1
1
1
1
1
1
1
1
1
1
1
1
1
1
1
1
1
1
1
1
1
1
1
1
1
1
1
1
1
1
1
1
1
1
1
1
1
1
1
1
1
1
1
1
1
1
1
1
1
1
1
1
1
1
1
1
1
1
1
1
1
1
1
1
1
1
1
1
1
1
1
1
1
1
1
1
1
1
1
1
1
1
1
1
1
1
1
1
1
1
1
1
1
1
1
1
1
1
1
1
1
1
1
1
1
1
1
1
1
1
1
1
1
1
1
1
1
1
1
1
1
1
1
1
1
1
1
1
1
1
1
1
1
1
1
1
1
1
1
1
1
1
1
1
1
1
1
1
1
1
1
1
1
1
1
1
1
1
1
1
1
1
1
1
1
1
1
1
1
1
1
1
1
1
1
1
1
1
1
1
1
1
1
1
1
1
1
1
1
1
1
1
1
1
1
1
1
1
1
1
1
1
1
1
1
1
1
1
1
1
1
1
1
1
1
1
1
1
1
1
1
1
1
1
1
1
1
1
1
1
1
1
1
1
1
1
1
1
1
1
1
1
1
1
1
1
1
1
1
1
1
1
1
1
1
1
1
1
1
1
1
1
1
1
1
1
1
1
1
1
1
1
1
1
1
1
1
1
1
1
1
1
1
1
1
1
1
1
1
1
1
1
1
1
1
1
1
1
1
1
1
1
1
1
1
1
1
1
1
1
1
1
1
1
1
1
1
1
1
1
1
1
1
1
1
1
1
1
1
1
1
1
1
1
1
1
1
1
1
1
1
1
1
1
1
1
1
1
1
1
1
1
1
1
1
1
1
1
1
1
1
1
1
1
1
1
1
1
1
1
1
1
1
1
1
1
1
1
1
1
1
1
1
1
1
1
1
1
1
1
1
1
1
1
1
1
1
1
1
1
1
1
1
1
1
1
1
1
1
1
1
1
1
1
1
1
1
1
1
1
1
1
1
1
1
1
1
1
1
1
1
1
1
1
1
1
1
1
1
1
1
1
1
1
1
1
1
1
1
1
1
1
1
1
1
1
1
1
1
1
1
1
1
1
1
1
1
1
1
1
1
1
1
1
1
1
1
1
1
1
1
1
1
1
1
1
1
1
1
1
1
1
1
1
1
1
1
1
1
1
1
1
1
1
1
1
1
1
1
1
1
1
1
1
1
1
1
1
1
1
1
1
1
1
1
1
1
1
1
1
1
1
1
1
1
1
1
1
1
1
1
1
1
1
1
1
1
1
1
1
1
1
1
1
1
1
1
1
1
1
1
1
1
1
1
1
1
1
1
1
1
1
1
1
1
1
1
1
1
1
1
1
1
1
1
1
1
1
1
1
1
1
1
1
1
1
1
1
1
1
1
1
1
1
1
1
1
1
1
1
1
1
1
1
1
1
1
1
1
1
1
1
1
1
1
1
1
1
1
1
1
1
1
1
1
1
1
1
1
1
1
1
1
1
1
1
1
1
1
1
1
1
1
1
1
1
1
1
1
1
1
1
1
1
1
1
1
1
1
1
1
1
1
1
1
1
1
1
1
1
1
1
1
1
1
1
1
1
1
1
1
1
1
1
1
1
1
1
1
1
1
1
1
1
1
1
1
1
1
1
1
1
1
1
1
1
1
1
1
1
1
1
1
1
1
1
1
1
1
1
1
1
1
1
1
1
1
1
1
1
1
1
1
1
1
1
1
1
1
1
1
1
1
1
1
1
1
1
1
1
1
1
1
1
1
1
1
1
1
1
1
1
1
1
1
1
1
1
1
1
1
1
1
1
1
1
1
1
1
1
1
1
1
1
1
1
1
1
1
1
1
1
1
1
1
1
1
1
1
1
1
1
1
1
1
1
1
1
1
1
1
1
1
1
1
1
1
1
1
1
1
1
1
1
1
1
1
1
1
1
1
1
1
1
1
1
1
1
1
1
1
1
1
1
1
1
1
1
1
1
1
1
1
1
1
1
1
1
1
1
1
1
1
1
1
1
1
1
1
1
1
1
1
1
1
1
1
1
1
1
1
1
1
1
1
1
1
1
1
1
1
1
1
1
1
1
1
1
1
1
1
1
1
1
1
1
1
1
1
1
1
1
1
1
1
1
1
1
1
1
1
1
1
1
1
1
1
1
1
1
1
1
1
1
1
1
1
1
1
1
1
1
1
1
1
1
1
1
1
1
1
1
1
1
1
1
1
1
1
1
1
1.26385
1.68004
2.18417
2.78572
3.34296
3.82493
4.42907
5.25955
5.53706
5.74474
6.20228
6.4015
6.31426
6.16952
5.98045
5.65717
5.2162
4.6747
4.40323
4.33837
4.25784
4.12502
4.11312
4.14256
4.22118
4.30124
4.33
4.32672
4.33388
4.36126
4.39578
4.42483
4.44699
4.46429
4.47514
4.4787
4.47421
4.45808
4.44226
4.43077
4.42542
4.4253
4.42958
4.43646
4.44709
4.46158
4.47927
4.49275
4.49785
4.49726
4.4855
4.46422
4.44002
4.42309
4.41826
4.41934
4.42446
4.43419
4.44835
4.46837
4.48777
4.5031
4.51309
4.51632
4.51464
4.50922
4.50136
4.4874
4.46519
4.44383
4.43742
4.43756
4.44322
4.45752
4.47288
4.48265
4.48909
4.49287
4.4941
4.49209
1
0.999322
1.00305
1.02523
1.13056
1.30425
1.45483
1.71897
2.18992
2.55091
3.0241
3.49499
3.82709
4.19984
4.45439
4.58819
4.7104
4.7487
4.72915
4.76092
4.75389
4.6409
4.51858
4.46246
4.44487
4.4086
4.33944
4.30642
4.30639
4.32578
4.36016
4.38525
4.39876
4.41386
4.43946
4.45532
4.45642
4.45196
4.44974
4.45404
4.45644
4.4524
4.44554
4.43829
4.43214
4.43041
4.4381
4.45658
4.47278
4.47758
4.47307
4.46513
4.46641
4.46833
4.46982
4.47014
4.46632
4.4587
4.45314
4.45019
4.45049
4.45399
4.461
4.4724
4.48677
4.49424
4.49423
4.49216
4.48769
4.47929
4.47406
4.47523
4.4799
4.48566
4.48763
4.48727
4.4833
4.48013
4.47392
4.47087
1
1
1
1
0.999999
1
0.999927
0.998909
1.01263
1.05406
1.15567
1.41001
1.78507
2.33831
3.11794
4.09044
4.61902
4.90377
5.13813
5.13533
5.09921
5.02561
4.89243
4.76175
4.54928
4.43605
4.34334
4.30739
4.31728
4.33601
4.35656
4.38657
4.38989
4.38195
4.38152
4.38665
4.40045
4.42971
4.45998
4.47412
4.47789
4.47952
4.47879
4.47003
4.45035
4.42839
4.41703
4.41833
4.42255
4.43053
4.4435
4.46108
4.47888
4.49343
4.50111
4.50325
4.50125
4.49254
4.47693
4.45945
4.44473
4.43649
4.43358
4.43371
4.44204
4.46155
4.48113
4.49267
4.49715
4.49767
4.49622
4.49783
4.5015
4.50422
4.5041
4.49998
4.4924
4.48166
4.47045
4.46554
1
1
1
1
1
1
1
1
1
1
1
0.999879
1.00023
1.02001
1.15508
1.48575
2.1703
2.91347
3.72444
4.32213
4.50185
4.70293
4.6515
4.59632
4.65261
4.69346
4.67405
4.57936
4.5264
4.4958
4.46802
4.43172
4.3698
4.31299
4.30231
4.30866
4.33429
4.37924
4.43608
4.47414
4.4925
4.50018
4.50108
4.49136
4.47169
4.44385
4.41817
4.41526
4.41789
4.41682
4.41645
4.42595
4.44996
4.48504
4.51397
4.52462
4.52268
4.51282
4.49468
4.46845
4.44577
4.43571
4.43221
4.43217
4.43706
4.44621
4.45874
4.47065
4.47986
4.48977
4.49839
4.50633
4.51365
4.51653
4.5147
4.50852
4.49539
4.48251
4.47331
4.46763
1
1
1
1
1
1
1
1
1
1
1
1
1
0.999999
1
0.99924
1.0142
1.12209
1.35283
1.94954
2.71997
3.51984
4.12041
4.41582
4.75798
4.81455
4.80229
4.7824
4.72791
4.66132
4.54533
4.47173
4.4098
4.3508
4.3331
4.33258
4.34241
4.36456
4.39786
4.4241
4.43652
4.44466
4.45917
4.47194
4.47512
4.46893
4.463
4.45494
4.4466
4.43605
4.42556
4.42133
4.42679
4.44212
4.46202
4.48283
4.49511
4.49807
4.49531
4.48557
4.47587
4.47009
4.46568
4.46231
4.46231
4.46615
4.47038
4.47076
4.46962
4.46972
4.47218
4.47714
4.48323
4.48791
4.49003
4.48946
4.48611
4.48268
4.48165
4.47939
1
1
1
1
1
1
1
1
1
1
1
1
1
1
1
1
1
1
0.999421
1.00848
1.0934
1.27704
1.80889
2.51604
3.34508
3.89167
4.14411
4.45541
4.46569
4.47565
4.53544
4.58315
4.5756
4.52522
4.48362
4.45455
4.42879
4.40802
4.37389
4.34293
4.3389
4.34753
4.37812
4.42159
4.45672
4.48019
4.49788
4.5072
4.50581
4.49331
4.46322
4.43566
4.43106
4.42957
4.42952
4.43288
4.44137
4.45332
4.46793
4.48316
4.49416
4.49701
4.49576
4.4943
4.4951
4.49658
4.49438
4.48611
4.47397
4.46241
4.45734
4.45626
4.45544
4.45526
4.4575
4.46242
4.46954
4.47885
4.4872
4.49177
1
1
1
1
1
1
1
1
1
1
1
1
1
1
1
1
1
1
1
1
1
0.999533
1.00548
1.06422
1.22743
1.72411
2.38313
3.16891
3.74989
4.10924
4.49394
4.60365
4.61174
4.61216
4.59367
4.55592
4.49661
4.45311
4.39117
4.34267
4.32659
4.32867
4.3427
4.36719
4.40177
4.45117
4.49878
4.51574
4.51702
4.51563
4.51007
4.48546
4.44622
4.42808
4.42138
4.41917
4.42194
4.42653
4.43588
4.45365
4.47723
4.49626
4.50479
4.5087
4.51153
4.51026
4.50177
4.4859
4.46814
4.45408
4.44715
4.44638
4.44761
4.44991
4.4528
4.4567
4.46191
4.46997
4.47982
4.48987
1
1
1
1
1
1
1
1
1
1
1
1
1
1
1
1
1
1
1
1
1
1
1
1
0.999598
1.00515
1.05059
1.19254
1.69854
2.34108
3.10039
3.59409
3.9819
4.3313
4.38632
4.42461
4.49144
4.5376
4.51775
4.47055
4.42529
4.38187
4.35508
4.35684
4.3649
4.37982
4.41325
4.45754
4.49536
4.50903
4.50966
4.51008
4.5057
4.49243
4.47523
4.4567
4.44164
4.4369
4.438
4.44345
4.45078
4.45927
4.46847
4.47652
4.48362
4.48858
4.49055
4.48785
4.48245
4.47614
4.47076
4.46697
4.46595
4.46579
4.46672
4.46996
4.47553
4.47979
4.48296
4.48831
1
1
1
1
1
1
1
1
1
1
1
1
1
1
1
1
1
1
1
1
1
1
1
1
1
0.999994
1
0.999722
1.00614
1.04839
1.20014
1.67284
2.28598
3.09953
3.60224
4.02427
4.38645
4.48837
4.52376
4.52514
4.50826
4.46296
4.4223
4.38753
4.36687
4.35973
4.35741
4.3678
4.38849
4.41707
4.45216
4.48404
4.50511
4.51242
4.51382
4.51368
4.50789
4.49388
4.47346
4.4544
4.44155
4.43567
4.43375
4.43455
4.43847
4.44719
4.45919
4.47037
4.47855
4.48535
4.48992
4.49554
4.49846
4.49696
4.49436
4.49144
4.49006
4.48797
4.48587
4.4834
1
1
1
1
1
1
1
1
1
1
1
1
1
1
1
1
1
1
1
1
1
1
1
1
1
1
1
0.999999
0.999991
1.00002
0.999842
1.00697
1.04465
1.23942
1.78606
2.40488
3.09706
3.56876
4.04035
4.35197
4.44631
4.4519
4.47665
4.5147
4.50175
4.45902
4.40524
4.36355
4.34632
4.34941
4.36307
4.38877
4.4296
4.47835
4.51203
4.52555
4.52926
4.52853
4.52504
4.51535
4.49482
4.46455
4.43776
4.42867
4.43183
4.43886
4.44597
4.45069
4.45387
4.46475
4.48502
4.49921
4.50036
4.49784
4.49567
4.49425
4.49006
4.4815
4.47446
4.46957
1
1
1
1
1
1
1
1
1
1
1
1
1
1
1
1
1
1
1
1
1
1
1
1
1
1
1
1
1
1
0.999998
1
0.999949
1.00011
1.01327
1.064
1.29609
1.81954
2.52266
3.23698
3.71483
4.13581
4.35899
4.48611
4.51532
4.5144
4.50026
4.47296
4.43041
4.3873
4.36239
4.36163
4.377
4.4019
4.42444
4.45299
4.48017
4.50126
4.51524
4.52049
4.51793
4.50783
4.49238
4.47188
4.45659
4.45156
4.44792
4.4454
4.44728
4.45273
4.46224
4.47569
4.48283
4.48226
4.48196
4.483
4.48358
4.48503
4.48376
4.48031
1
1
1
1
1
1
1
1
1
1
1
1
1
1
1
1
1
1
1
1
1
1
1
1
1
1
1
1
1
1
1
1
0.999999
0.999998
1
0.999936
1.00081
1.01638
1.0899
1.45386
2.05906
2.77575
3.34014
3.83778
4.23552
4.43222
4.46261
4.47134
4.51645
4.51968
4.49308
4.45035
4.4193
4.39361
4.38379
4.38788
4.39853
4.41143
4.43301
4.46419
4.49382
4.50237
4.49884
4.50199
4.50941
4.50976
4.50201
4.48242
4.46044
4.45049
4.454
4.46185
4.4641
4.46177
4.45939
4.46148
4.46659
4.47291
4.47776
4.48159
1
1
1
1
1
1
1
1
1
1
1
1
1
1
1
1
1
1
1
1
1
1
1
1
1
1
1
1
1
1
1
1
1
1
1
0.999998
0.999996
1.00001
0.999955
1.00422
1.03531
1.16859
1.63984
2.30532
3.09143
3.60128
3.99616
4.25385
4.43964
4.49776
4.51515
4.51885
4.52383
4.50751
4.47201
4.42941
4.39296
4.38106
4.38753
4.39997
4.41538
4.44096
4.47227
4.49875
4.51377
4.51993
4.51736
4.50057
4.48833
4.48072
4.47503
4.4699
4.46309
4.45314
4.44733
4.44992
4.45619
4.45994
4.46324
4.47253
1
1
1
1
1
1
1
1
1
1
1
1
1
1
1
1
1
1
1
1
1
1
1
1
1
1
1
1
1
1
1
1
1
1
1
1
1
1
0.999998
1
0.999972
1.00028
1.0124
1.06575
1.34882
1.99291
2.77715
3.35167
3.81848
4.14298
4.38592
4.4839
4.50214
4.52731
4.54814
4.53681
4.50311
4.45468
4.41722
4.40148
4.40135
4.41043
4.42612
4.44105
4.45608
4.47473
4.48627
4.48436
4.48194
4.48776
4.49635
4.49895
4.49366
4.4811
4.4653
4.45548
4.45195
4.45204
4.45453
4.46627
1
1
1
1
1
1
1
1
1
1
1
1
1
1
1
1
1
1
1
1
1
1
1
1
1
1
1
1
1
1
1
1
1
1
1
1
1
1
1
1
0.999999
0.999998
1.00001
0.999983
1.0033
1.03946
1.1803
1.65721
2.40977
3.20885
3.71403
4.06407
4.24469
4.42425
4.51088
4.52956
4.53033
4.51291
4.50627
4.50438
4.48834
4.46524
4.44479
4.43373
4.43878
4.44342
4.44133
4.43717
4.43955
4.45853
4.48539
4.4926
4.49047
4.48307
4.47997
4.47896
4.47604
4.47274
4.47038
4.47308
1
1
1
1
1
1
1
1
1
1
1
1
1
1
1
1
1
1
1
1
1
1
1
1
1
1
1
1
1
1
1
1
1
1
1
1
1
1
1
1
1
1
1
0.999999
1
0.999988
1.00061
1.01754
1.09371
1.45673
2.21003
3.14661
3.64093
3.96438
4.21311
4.38658
4.4148
4.44932
4.49266
4.54323
4.5532
4.54224
4.52559
4.5055
4.48937
4.46762
4.4335
4.41575
4.41513
4.42917
4.45159
4.46399
4.47141
4.47608
4.47799
4.4797
4.48528
4.4887
4.48739
4.48628
1
1
1
1
1
1
1
1
1
1
1
1
1
1
1
1
1
1
1
1
1
1
1
1
1
1
1
1
1
1
1
1
1
1
1
1
1
1
1
1
1
1
1
1
1
0.999999
0.999999
0.99999
1.00013
1.00888
1.07781
1.34109
2.0219
2.92608
3.69656
4.03241
4.14303
4.19619
4.29416
4.41996
4.51217
4.53043
4.53692
4.53235
4.5321
4.53048
4.50419
4.46564
4.44178
4.44103
4.45019
4.45758
4.45656
4.45166
4.45357
4.46245
4.47693
4.48055
4.48042
4.48379
1
1
1
1
1
1
1
1
1
1
1
1
1
1
1
1
1
1
1
1
1
1
1
1
1
1
1
1
1
1
1
1
1
1
1
1
1
1
1
1
1
1
1
1
1
1
1
0.999999
0.999999
0.999993
1.0001
1.00418
1.06172
1.26323
1.86428
2.8399
3.89881
4.0653
4.1362
4.27038
4.36377
4.36733
4.37688
4.41361
4.46515
4.50314
4.4977
4.47825
4.47521
4.48844
4.49941
4.49812
4.48091
4.45478
4.44691
4.45185
4.45983
4.46707
4.47163
4.4762
1
1
1
1
1
1
1
1
1
1
1
1
1
1
1
1
1
1
1
1
1
1
1
1
1
1
1
1
1
1
1
1
1
1
1
1
1
1
1
1
1
1
1
1
1
1
1
1
1
0.999999
0.999999
0.999993
1.00009
1.00241
1.04719
1.25325
1.95247
2.89141
3.74193
4.31529
4.39115
4.35359
4.30237
4.30137
4.32988
4.39113
4.4306
4.4435
4.46674
4.50365
4.52586
4.52555
4.50539
4.48447
4.47371
4.46958
4.46774
4.46732
4.46612
4.46661
1
1
1
1
1
1
1
1
1
1
1
1
1
1
1
1
1
1
1
1
1
1
1
1
1
1
1
1
1
1
1
1
1
1
1
1
1
1
1
1
1
1
1
1
1
1
1
1
1
1
1
0.999999
1
0.999995
1.00008
1.00263
1.05627
1.33485
1.95349
2.90735
3.89933
4.37568
4.38621
4.40438
4.42297
4.40625
4.4024
4.3847
4.38734
4.42367
4.46816
4.49356
4.4828
4.46919
4.47173
4.47748
4.48204
4.4838
4.48112
4.47712
1
1
1
1
1
1
1
1
1
1
1
1
1
1
1
1
1
1
1
1
1
1
1
1
1
1
1
1
1
1
1
1
1
1
1
1
1
1
1
1
1
1
1
1
1
1
1
1
1
1
1
1
1
0.999999
0.999999
0.999995
1.00017
1.00444
1.06022
1.34312
2.06477
3.16447
3.91136
4.2743
4.49803
4.52517
4.51713
4.46289
4.42114
4.4299
4.43345
4.43486
4.4302
4.41791
4.42037
4.44478
4.46957
4.48199
4.48307
4.48006
1
1
1
1
1
1
1
1
1
1
1
1
1
1
1
1
1
1
1
1
1
1
1
1
1
1
1
1
1
1
1
1
1
1
1
1
1
1
1
1
1
1
1
1
1
1
1
1
1
1
1
1
1
1
1
0.999999
0.999999
0.999994
1.0002
1.00528
1.08353
1.55427
2.46582
3.23624
3.98433
4.46383
4.50162
4.48954
4.52264
4.56217
4.55605
4.50898
4.46011
4.42295
4.41404
4.42748
4.44145
4.44857
4.45375
4.47133
1
1
1
1
1
1
1
1
1
1
1
1
1
1
1
1
1
1
1
1
1
1
1
1
1
1
1
1
1
1
1
1
1
1
1
1
1
1
1
1
1
1
1
1
1
1
1
1
1
1
1
1
1
1
1
1
1
0.999999
0.999999
0.999994
1.00065
1.01728
1.17104
1.73947
2.65941
3.68972
4.03275
4.2219
4.4184
4.51871
4.5363
4.5264
4.50814
4.49282
4.48051
4.46983
4.45612
4.44252
4.43715
4.45452
1
1
1
1
1
1
1
1
1
1
1
1
1
1
1
1
1
1
1
1
1
1
1
1
1
1
1
1
1
1
1
1
1
1
1
1
1
1
1
1
1
1
1
1
1
1
1
1
1
1
1
1
1
1
1
1
1
1
1
0.999999
0.999998
1.00001
1.00223
1.03634
1.24422
1.99834
3.33085
3.86429
4.08161
4.29115
4.38998
4.38896
4.41264
4.46616
4.50807
4.52144
4.52334
4.50883
4.49161
4.48248
1
1
1
1
1
1
1
1
1
1
1
1
1
1
1
1
1
1
1
1
1
1
1
1
1
1
1
1
1
1
1
1
1
1
1
1
1
1
1
1
1
1
1
1
1
1
1
1
1
1
1
1
1
1
1
1
1
1
1
1
1
1
0.999997
1.00008
1.00533
1.07537
1.57507
2.61756
3.65049
4.29529
4.34134
4.30094
4.30092
4.33296
4.38492
4.44047
4.49122
4.51113
4.51097
4.50576
1
1
1
1
1
1
1
1
1
1
1
1
1
1
1
1
1
1
1
1
1
1
1
1
1
1
1
1
1
1
1
1
1
1
1
1
1
1
1
1
1
1
1
1
1
1
1
1
1
1
1
1
1
1
1
1
1
1
1
1
1
1
1
0.999999
1
1.00067
1.02974
1.28169
1.93419
3.08984
4.06571
4.41805
4.4522
4.4045
4.35074
4.35795
4.40004
4.43618
4.45214
4.46813
1
1
1
1
1
1
1
1
1
1
1
1
1
1
1
1
1
1
1
1
1
1
1
1
1
1
1
1
1
1
1
1
1
1
1
1
1
1
1
1
1
1
1
1
1
1
1
1
1
1
1
1
1
1
1
1
1
1
1
1
1
1
1
1
1
0.999999
1.00015
1.00567
1.08367
1.46841
2.55386
3.67382
4.29132
4.49211
4.53732
4.51417
4.47226
4.44447
4.43464
4.43456
1
1
1
1
1
1
1
1
1
1
1
1
1
1
1
1
1
1
1
1
1
1
1
1
1
1
1
1
1
1
1
1
1
1
1
1
1
1
1
1
1
1
1
1
1
1
1
1
1
1
1
1
1
1
1
1
1
1
1
1
1
1
1
1
1
1
1
1
1.0008
1.01874
1.29756
2.20161
3.16505
4.0336
4.45285
4.49957
4.52245
4.54259
4.54472
4.50636
1
1
1
1
1
1
1
1
1
1
1
1
1
1
1
1
1
1
1
1
1
1
1
1
1
1
1
1
1
1
1
1
1
1
1
1
1
1
1
1
1
1
1
1
1
1
1
1
1
1
1
1
1
1
1
1
1
1
1
1
1
1
1
1
1
1
1
1
0.999999
1.00012
1.00949
1.1354
1.77811
2.9321
3.92162
4.1191
4.27852
4.44829
4.53184
4.54595
1
1
1
1
1
1
1
1
1
1
1
1
1
1
1
1
1
1
1
1
1
1
1
1
1
1
1
1
1
1
1
1
1
1
1
1
1
1
1
1
1
1
1
1
1
1
1
1
1
1
1
1
1
1
1
1
1
1
1
1
1
1
1
1
1
1
1
1
1
1
1.00002
1.00278
1.06558
1.43566
2.58899
3.87705
4.12951
4.22297
4.31598
4.41239
1
1
1
1
1
1
1
1
1
1
1
1
1
1
1
1
1
1
1
1
1
1
1
1
1
1
1
1
1
1
1
1
1
1
1
1
1
1
1
1
1
1
1
1
1
1
1
1
1
1
1
1
1
1
1
1
1
1
1
1
1
1
1
1
1
1
1
1
1
1
1
1
1.00074
1.02436
1.26809
2.29403
3.53819
4.32269
4.38086
4.33294
1
1
1
1
1
1
1
1
1
1
1
1
1
1
1
1
1
1
1
1
1
1
1
1
1
1
1
1
1
1
1
1
1
1
1
1
1
1
1
1
1
1
1
1
1
1
1
1
1
1
1
1
1
1
1
1
1
1
1
1
1
1
1
1
1
1
1
1
1
1
1
1
0.999999
1.00018
1.01081
1.20492
1.95862
3.22273
4.19777
4.46215
1
1
1
1
1
1
1
1
1
1
1
1
1
1
1
1
1
1
1
1
1
1
1
1
1
1
1
1
1
1
1
1
1
1
1
1
1
1
1
1
1
1
1
1
1
1
1
1
1
1
1
1
1
1
1
1
1
1
1
1
1
1
1
1
1
1
1
1
1
1
1
1
1
1
1.00007
1.00586
1.1199
1.69025
2.95232
4.1596
1
1
1
1
1
1
1
1
1
1
1
1
1
1
1
1
1
1
1
1
1
1
1
1
1
1
1
1
1
1
1
1
1
1
1
1
1
1
1
1
1
1
1
1
1
1
1
1
1
1
1
1
1
1
1
1
1
1
1
1
1
1
1
1
1
1
1
1
1
1
1
1
1
1
1
1.00002
1.00256
1.05964
1.55082
3.2714
1
1
1
1
1
1
1
1
1
1
1
1
1
1
1
1
1
1
1
1
1
1
1
1
1
1
1
1
1
1
1
1
1
1
1
1
1
1
1
1
1
1
1
1
1
1
1
1
1
1
1
1
1
1
1
1
1
1
1
1
1
1
1
1
1
1
1
1
1
1
1
1
1
1
1
1
1.00001
1.00156
1.04081
2.10651
1
1
1
1
1
1
1
1
1
1
1
1
1
1
1
1
1
1
1
1
1
1
1
1
1
1
1
1
1
1
1
1
1
1
1
1
1
1
1
1
1
1
1
1
1
1
1
1
1
1
1
1
1
1
1
1
1
1
1
1
1
1
1
1
1
1
1
1
1
1
1
1
1
1
1
1
1
1.00001
1.0013
1.31543
1
1
1
1
1
1
1
1
1
1
1
1
1
1
1
1
1
1
1
1
1
1
1
1
1
1
1
1
1
1
1
1
1
1
1
1
1
1
1
1
1
1
1
1
1
1
1
1
1
1
1
1
1
1
1
1
1
1
1
1
1
1
1
1
1
1
1
1
1
1
1
1
1
1
1
1
1
1
1.00002
1.04828
1
1
1
1
1
1
1
1
1
1
1
1
1
1
1
1
1
1
1
1
1
1
1
1
1
1
1
1
1
1
1
1
1
1
1
1
1
1
1
1
1
1
1
1
1
1
1
1
1
1
1
1
1
1
1
1
1
1
1
1
1
1
1
1
1
1
1
1
1
1
1
1
1
1
1
1
1
1
1
1.00419
1
1
1
1
1
1
1
1
1
1
1
1
1
1
1
1
1
1
1
1
1
1
1
1
1
1
1
1
1
1
1
1
1
1
1
1
1
1
1
1
1
1
1
1
1
1
1
1
1
1
1
1
1
1
1
1
1
1
1
1
1
1
1
1
1
1
1
1
1
1
1
1
1
1
1
1
1
1
1
1.00025
1
1
1
1
1
1
1
1
1
1
1
1
1
1
1
1
1
1
1
1
1
1
1
1
1
1
1
1
1
1
1
1
1
1
1
1
1
1
1
1
1
1
1
1
1
1
1
1
1
1
1
1
1
1
1
1
1
1
1
1
1
1
1
1
1
1
1
1
1
1
1
1
1
1
1
1
1
1
1
1.00001
)
;

boundaryField
{
    inlet
    {
        type            fixedValue;
        value           uniform 1;
    }
    outlet
    {
        type            zeroGradient;
    }
    bottom
    {
        type            symmetryPlane;
    }
    top
    {
        type            symmetryPlane;
    }
    obstacle
    {
        type            zeroGradient;
    }
    defaultFaces
    {
        type            empty;
    }
}


// ************************************************************************* //
