/*--------------------------------*- C++ -*----------------------------------*\
| =========                 |                                                 |
| \\      /  F ield         | OpenFOAM: The Open Source CFD Toolbox           |
|  \\    /   O peration     | Version:  2206                                  |
|   \\  /    A nd           | Website:  www.openfoam.com                      |
|    \\/     M anipulation  |                                                 |
\*---------------------------------------------------------------------------*/
FoamFile
{
    version     2.0;
    format      ascii;
    arch        "LSB;label=32;scalar=64";
    class       volScalarField;
    location    "0.08";
    object      rho;
}
// * * * * * * * * * * * * * * * * * * * * * * * * * * * * * * * * * * * * * //

dimensions      [1 -3 0 0 0 0 0];

internalField   nonuniform List<scalar> 
4800
(
1.40001
1.40001
1.40001
1.40001
1.40001
1.40001
1.40001
1.40001
1.40001
1.40001
1.40001
1.40001
1.40001
1.40001
1.40001
1.40001
1.40001
1.40001
1.40001
1.40001
1.40001
1.40001
1.40001
1.40001
1.40001
1.40001
1.40001
1.40001
1.40001
1.40001
1.40001
1.40001
1.40001
1.40001
1.40001
1.40001
1.40001
1.40001
1.40001
1.40001
1.40001
1.40001
1.40001
1.40001
1.40001
1.40001
1.40001
1.40001
1.40001
1.40001
1.40001
1.40001
1.40001
1.40001
1.40001
1.40001
1.40001
1.40001
1.40001
1.40001
1.40001
1.40001
1.40001
1.40001
1.40001
1.40001
1.40001
1.40001
1.40001
1.40001
1.40001
1.40001
1.40001
1.40001
1.40001
1.40001
1.40001
1.40001
1.40001
1.40001
1.40001
1.40001
1.40001
1.40001
1.40001
1.40001
1.40001
1.40001
1.40001
1.40001
1.40001
1.40001
1.40001
1.40001
1.40001
1.40001
1.40001
1.40001
1.40001
1.40001
1.40001
1.40001
1.40001
1.40001
1.40001
1.40001
1.40001
1.40001
1.40001
1.40001
1.40001
1.40001
1.40001
1.40001
1.40001
1.40001
1.40001
1.40001
1.40001
1.40001
1.40001
1.40001
1.40001
1.40001
1.40001
1.40001
1.40001
1.40001
1.40001
1.40001
1.40001
1.40001
1.40001
1.40001
1.40001
1.40001
1.40001
1.40001
1.40001
1.40001
1.40001
1.40001
1.40001
1.40001
1.40001
1.40001
1.40001
1.40001
1.40001
1.40001
1.40001
1.40001
1.40001
1.40001
1.40001
1.40001
1.40001
1.40001
1.40001
1.40001
1.40001
1.40001
1.40001
1.40001
1.40001
1.40001
1.40001
1.40001
1.40001
1.40001
1.40001
1.40001
1.40001
1.40001
1.40001
1.40001
1.40001
1.40001
1.40001
1.40001
1.40001
1.40001
1.40001
1.40001
1.40001
1.40001
1.40001
1.40001
1.40001
1.40001
1.40001
1.40001
1.40001
1.40001
1.40001
1.40001
1.40001
1.40001
1.40001
1.40001
1.40001
1.40001
1.40001
1.40001
1.40001
1.40001
1.40001
1.40001
1.40001
1.40001
1.40001
1.40001
1.40001
1.40001
1.40001
1.40001
1.40001
1.40001
1.40001
1.40001
1.40001
1.40001
1.40001
1.40001
1.40001
1.40001
1.40001
1.40001
1.40001
1.40001
1.40001
1.40001
1.40001
1.40001
1.40001
1.40001
1.40001
1.40001
1.40001
1.40001
1.40001
1.40001
1.40001
1.40001
1.40001
1.40001
1.40001
1.40001
1.40001
1.40001
1.40001
1.40001
1.40001
1.40001
1.40001
1.40001
1.40001
1.40001
1.40001
1.40001
1.40001
1.40001
1.40001
1.40001
1.40001
1.40001
1.40001
1.40001
1.40001
1.40001
1.40001
1.40001
1.40001
1.40001
1.40001
1.40001
1.40001
1.40001
1.40001
1.40001
1.40001
1.40001
1.40001
1.40001
1.40001
1.40001
1.40001
1.40001
1.40001
1.40001
1.40001
1.40001
1.40001
1.40001
1.40001
1.40001
1.40001
1.40001
1.40001
1.40001
1.40001
1.40001
1.40001
1.40001
1.40001
1.40001
1.40001
1.40001
1.40001
1.40001
1.40001
1.40001
1.40001
1.40001
1.40001
1.40001
1.40001
1.40001
1.40001
1.40001
1.40001
1.40001
1.40001
1.40001
1.40001
1.40001
1.40001
1.40001
1.40001
1.40001
1.40001
1.40001
1.40001
1.40001
1.40001
1.40001
1.40001
1.40001
1.40001
1.40001
1.40001
1.40001
1.40001
1.40001
1.40001
1.40001
1.40001
1.40001
1.40001
1.40001
1.40001
1.40001
1.40001
1.40001
1.40001
1.40001
1.40001
1.40001
1.40001
1.40001
1.40001
1.40001
1.40001
1.40001
1.40001
1.40001
1.40001
1.40001
1.40001
1.40001
1.40001
1.40001
1.40001
1.40001
1.40001
1.40001
1.40001
1.40001
1.40001
1.40001
1.40001
1.40001
1.40001
1.40001
1.40001
1.40001
1.40001
1.40001
1.40001
1.40001
1.40001
1.40001
1.40001
1.40001
1.40001
1.40001
1.40001
1.40001
1.40001
1.40001
1.40001
1.40001
1.40001
1.40001
1.40001
1.40001
1.40001
1.40001
1.40001
1.40001
1.40001
1.40001
1.40001
1.40001
1.40001
1.40001
1.40001
1.40001
1.40001
1.40001
1.40001
1.40001
1.40001
1.40001
1.40001
1.40001
1.40001
1.40001
1.40001
1.40001
1.40001
1.40001
1.40001
1.40001
1.40001
1.40001
1.40001
1.40001
1.40001
1.40001
1.40001
1.40001
1.40001
1.40001
1.40001
1.40001
1.40001
1.40001
1.40001
1.40001
1.40001
1.40001
1.40001
1.40001
1.40001
1.40001
1.40001
1.40001
1.40001
1.40001
1.40001
1.40001
1.40001
1.40001
1.40001
1.40001
1.40001
1.40001
1.40001
1.40001
1.40001
1.40001
1.40001
1.40001
1.40001
1.40001
1.40001
1.40001
1.40001
1.40001
1.40001
1.40001
1.40001
1.40001
1.40001
1.40001
1.40001
1.40001
1.40001
1.40001
1.40001
1.40001
1.40001
1.40001
1.40001
1.40001
1.40001
1.40001
1.40001
1.40001
1.40001
1.40001
1.40001
1.40001
1.40001
1.40001
1.40001
1.40001
1.40001
1.40001
1.40001
1.40001
1.40001
1.40001
1.40001
1.40001
1.40001
1.40001
1.40001
1.40001
1.40001
1.40001
1.40001
1.40001
1.40001
1.40001
1.40001
1.40001
1.40001
1.40001
1.40001
1.40001
1.40001
1.40001
1.40001
1.40001
1.40001
1.40001
1.40001
1.40001
1.40001
1.40001
1.40001
1.40001
1.40001
1.40001
1.40001
1.40001
1.40001
1.40001
1.40001
1.40001
1.40001
1.40001
1.40001
1.40001
1.40001
1.40001
1.40001
1.40001
1.40001
1.40001
1.40001
1.40001
1.40001
1.40001
1.40001
1.40001
1.40001
1.40001
1.40001
1.40001
1.40001
1.40001
1.40001
1.40001
1.40001
1.40001
1.40001
1.40001
1.40001
1.40001
1.40001
1.40001
1.40001
1.40001
1.40001
1.40001
1.40001
1.40001
1.40001
1.40001
1.40001
1.40001
1.40001
1.40001
1.40001
1.40001
1.40001
1.40001
1.40001
1.40001
1.40001
1.40001
1.40001
1.40001
1.40001
1.40001
1.40001
1.40001
1.40001
1.40001
1.40001
1.40001
1.40001
1.40001
1.40001
1.40001
1.40001
1.40001
1.40001
1.40001
1.40001
1.40001
1.40001
1.40001
1.40001
1.40001
1.40001
1.40001
1.40001
1.40001
1.40001
1.40001
1.40001
1.40001
1.40001
1.40001
1.40001
1.40001
1.40001
1.40001
1.40001
1.40001
1.40001
1.40001
1.40001
1.40001
1.40001
1.40001
1.40001
1.40001
1.40001
1.40001
1.40001
1.40001
1.40001
1.40001
1.40001
1.40001
1.40001
1.40001
1.40001
1.40001
1.40001
1.40001
1.40001
1.40001
1.40001
1.40001
1.40001
1.40001
1.40001
1.40001
1.40001
1.40001
1.40001
1.40001
1.40001
1.40001
1.40001
1.40001
1.40001
1.40001
1.40001
1.40001
1.40001
1.40001
1.40001
1.40001
1.40001
1.40001
1.40001
1.40001
1.40001
1.40001
1.40001
1.40001
1.40001
1.40001
1.40001
1.40001
1.40001
1.40001
1.40001
1.40001
1.40001
1.40001
1.40001
1.40001
1.40001
1.40001
1.40001
1.40001
1.40001
1.40001
1.40001
1.40001
1.40001
1.40001
1.40001
1.40001
1.40001
1.40001
1.40001
1.40001
1.40001
1.40001
1.40001
1.40001
1.40001
1.40001
1.40001
1.40001
1.40001
1.40001
1.40001
1.40001
1.40001
1.40001
1.40001
1.40001
1.40001
1.40001
1.40001
1.40001
1.40001
1.40001
1.40001
1.40001
1.40001
1.40001
1.40001
1.40001
1.40001
1.40001
1.40001
1.40001
1.40001
1.40001
1.40001
1.40001
1.40001
1.40001
1.40001
1.40001
1.40001
1.40001
1.40001
1.40001
1.40001
1.40001
1.40001
1.40001
1.40001
1.40001
1.40001
1.40001
1.40001
1.40001
1.40001
1.40001
1.40001
1.40001
1.40001
1.40001
1.40001
1.40001
1.40001
1.40001
1.40001
1.40001
1.40001
1.40001
1.40001
1.40001
1.40001
1.40001
1.40001
1.40001
1.40001
1.40001
1.40001
1.40001
1.40001
1.40001
1.40001
1.40001
1.40001
1.40001
1.40001
1.40001
1.40001
1.40001
1.40001
1.40001
1.40001
1.40001
1.40001
1.40001
1.40001
1.40001
1.40001
1.40001
1.40001
1.40001
1.40001
1.40001
1.40001
1.40001
1.40001
1.40001
1.40001
1.40001
1.40001
1.40001
1.40001
1.40001
1.40001
1.40001
1.40001
1.40001
1.40001
1.40001
1.40001
1.40001
1.40001
1.40001
1.40001
1.40001
1.40001
1.40001
1.40001
1.40001
1.40001
1.40001
1.40001
1.40001
1.40001
1.40001
1.40001
1.40001
1.40001
1.40001
1.40001
1.40001
1.40001
1.40001
1.40001
1.40001
1.40001
1.40001
1.40001
1.40001
1.40001
1.40001
1.40001
1.40001
1.40001
1.40001
1.40001
1.40001
1.40001
1.40001
1.40001
1.40001
1.40001
1.40001
1.40001
1.40001
1.40001
1.40001
1.40001
1.40001
1.40001
1.40001
1.40001
1.40001
1.40001
1.40001
1.40001
1.40001
1.40001
1.40001
1.40001
1.40001
1.40001
1.40001
1.40001
1.40001
1.40001
1.40001
1.40001
1.40001
1.40001
1.40001
1.40001
1.40001
1.40001
1.40001
1.40001
1.40001
1.40001
1.40001
1.40001
1.40001
1.40001
1.40001
1.40001
1.40001
1.40001
1.40001
1.40001
1.40001
1.40001
1.40001
1.40001
1.40001
1.40001
1.40001
1.40001
1.40001
1.40001
1.40001
1.40001
1.40001
1.40001
1.40001
1.40001
1.40001
1.40001
1.40001
1.40001
1.40001
1.40001
1.40001
1.40001
1.40001
1.40001
1.40001
1.40001
1.40001
1.40001
1.40001
1.40001
1.40001
1.40001
1.40001
1.40001
1.40001
1.40001
1.40001
1.40001
1.40001
1.40001
1.40001
1.40001
1.40001
1.40001
1.40001
1.40001
1.40001
1.40001
1.40001
1.40001
1.40001
1.40001
1.40001
1.40001
1.40001
1.40001
1.40001
1.40001
1.40001
1.40001
1.40001
1.40001
1.40001
1.40001
1.40001
1.40001
1.40001
1.40001
1.40001
1.40001
1.40001
1.40001
1.40001
1.40001
1.40001
1.40001
1.40001
1.40001
1.40001
1.40001
1.40001
1.40001
1.40001
1.40001
1.40001
1.40001
1.40001
1.40001
1.40001
1.40001
1.40001
1.40001
1.40001
1.40001
1.40001
1.40001
1.40001
1.40001
1.40001
1.40001
1.40001
1.40001
1.40001
1.40001
1.40001
1.40001
1.40001
1.40001
1.40001
1.40001
1.40001
1.40001
1.40001
1.40001
1.40001
1.40001
1.40001
1.40001
1.40001
1.40001
1.40001
1.40001
1.40001
1.40001
1.40001
1.40001
1.40001
1.40001
1.40001
1.40001
1.40001
1.40001
1.40001
1.40001
1.40001
1.40001
1.40001
1.40001
1.40001
1.40001
1.40001
1.40001
1.40001
1.40001
1.40001
1.40001
1.40001
1.40001
1.40001
1.40001
1.40001
1.40001
1.40001
1.40001
1.40001
1.40001
1.40001
1.40001
1.40001
1.40001
1.40001
1.40001
1.40001
1.40001
1.40001
1.40001
1.40001
1.40001
1.40001
1.40001
1.40001
1.40001
1.40001
1.40001
1.40001
1.40001
1.40001
1.40001
1.40001
1.40001
1.40001
1.40001
1.40001
1.40001
1.40001
1.40001
1.40001
1.40001
1.40001
1.40001
1.40001
1.40001
1.40001
1.40001
1.40001
1.40001
1.40001
1.40001
1.40001
1.40001
1.40001
1.40001
1.40001
1.40001
1.40001
1.40001
1.40001
1.40001
1.40001
1.40001
1.40001
1.40001
1.40001
1.40001
1.40001
1.40001
1.40001
1.40001
1.40001
1.40001
1.40001
1.40001
1.40001
1.40001
1.40001
1.40001
1.40001
1.40001
1.40001
1.40001
1.40001
1.40001
1.40001
1.40001
1.40001
1.40001
1.40001
1.40001
1.40001
1.40001
1.40001
1.40001
1.40001
1.40001
1.40001
1.40001
1.40001
1.40001
1.40001
1.40001
1.40001
1.40001
1.40001
1.40001
1.40001
1.40001
1.40001
1.40001
1.40001
1.40001
1.40001
1.40001
1.40001
1.40001
1.40001
1.40001
1.40001
1.40001
1.40001
1.40001
1.40001
1.40001
1.40001
1.40001
1.40001
1.40001
1.40001
1.40001
1.40001
1.40001
1.40001
1.40001
1.40001
1.40001
1.40001
1.40001
1.40001
1.40001
1.40001
1.40001
1.40001
1.40001
1.40001
1.40001
1.40001
1.40001
1.40001
1.40001
1.40001
1.40001
1.40001
1.40001
1.40001
1.40001
1.40001
1.40001
1.40001
1.40001
1.40001
1.40001
1.40001
1.40001
1.40001
1.40001
1.40001
1.40001
1.40001
1.40001
1.40001
1.40001
1.40001
1.40001
1.40001
1.40001
1.40001
1.40001
1.40001
1.40001
1.40001
1.40001
1.40001
1.40001
1.40001
1.40001
1.40001
1.40001
1.40001
1.40001
1.40001
1.40001
1.40001
1.40001
1.40001
1.40001
1.40001
1.40001
1.40001
1.40001
1.40001
1.40001
1.40001
1.40001
1.40001
1.40001
1.40001
1.40001
1.40001
1.40001
1.40001
1.40001
1.40001
1.40001
1.40001
1.40001
1.40001
1.40001
1.40001
1.40001
1.40001
1.40001
1.40001
1.40001
1.40001
1.40001
1.40001
1.40001
1.40001
1.40001
1.40001
1.40001
1.40001
1.40001
1.40001
1.40001
1.40001
1.40001
1.40001
1.40001
1.40001
1.40001
1.40001
1.40001
1.40001
1.40001
1.40001
1.40001
1.40001
1.40001
1.40001
1.40001
1.40001
1.40001
1.40001
1.40001
1.40001
1.40001
1.40001
1.40001
1.40001
1.40001
1.40001
1.40001
1.40001
1.40001
1.40001
1.40001
1.40001
1.40001
1.40001
1.40001
1.40001
1.40001
1.40001
1.40001
1.40001
1.40001
1.40001
1.40001
1.40001
1.40001
1.40001
1.40001
1.40001
1.40001
1.40001
1.40001
1.40001
1.40001
1.40001
1.40001
1.40001
1.40001
1.40001
1.40001
1.40001
1.40001
1.40001
1.40001
1.40001
1.40001
1.40001
1.40001
1.40001
1.40001
1.40001
1.40001
1.40001
1.40001
1.40001
1.40001
1.40001
1.40001
1.40001
1.40001
1.40001
1.40001
1.40001
1.40001
1.40001
1.40001
1.40001
1.40001
1.40001
1.40001
1.40001
1.40001
1.40001
1.40001
1.40001
1.40001
1.40001
1.40001
1.40001
1.40001
1.40001
1.40001
1.40001
1.40001
1.40001
1.40001
1.40001
1.40001
1.40001
1.40001
1.40001
1.40001
1.40001
1.40001
1.40001
1.40001
1.40001
1.40001
1.40001
1.40001
1.40001
1.40001
1.40001
1.40001
1.40001
1.40001
1.40001
1.40001
1.40001
1.40001
1.40001
1.40001
1.40001
1.40001
1.40001
1.40001
1.40001
1.40001
1.40001
1.40001
1.40001
1.40001
1.40001
1.40001
1.40001
1.40001
1.40001
1.40001
1.40001
1.40001
1.40001
1.40001
1.40001
1.40001
1.40001
1.40001
1.40001
1.40001
1.40001
1.40001
1.40001
1.40001
1.40001
1.40001
1.40001
1.40001
1.40001
1.40001
1.40001
1.40001
1.40001
1.40001
1.40001
1.40001
1.40001
1.40001
1.40001
1.40001
1.40001
1.40001
1.40001
1.40001
1.40001
1.40001
1.40001
1.40001
1.40001
1.40001
1.40001
1.40001
1.40001
1.40001
1.40001
1.40001
1.40001
1.40001
1.40001
1.40001
1.40001
1.40001
1.40001
1.40001
1.40001
1.40001
1.40001
1.40001
1.40001
1.40001
1.40001
1.40001
1.40001
1.40001
1.40001
1.40001
1.40001
1.40001
1.40001
1.40001
1.40001
1.40001
1.40001
1.40001
1.40001
1.40001
1.40001
1.40001
1.40001
1.40001
1.40001
1.40001
1.40001
1.40001
1.40001
1.40001
1.40001
1.40001
1.40001
1.40001
1.40001
1.40001
1.40001
1.40001
1.40001
1.40001
1.40001
1.40001
1.40001
1.40001
1.40001
1.40001
1.40001
1.40001
1.40001
1.40001
1.40001
1.40001
1.40001
1.40001
1.40001
1.40001
1.40001
1.40001
1.40001
1.40001
1.40001
1.40001
1.40001
1.40001
1.40001
1.40001
1.40001
1.40001
1.40001
1.40001
1.40001
1.40001
1.40001
1.40001
1.40001
1.40001
1.40001
1.65911
2.03476
2.44656
2.76901
3.1058
3.3915
3.54389
3.6904
3.66917
3.57383
3.39982
3.18363
3.04466
3.00491
2.95956
2.9228
2.92688
2.94621
2.96684
2.98699
2.99989
3.00518
3.009
3.01223
3.01616
3.01827
3.01762
3.01547
3.01219
3.00913
3.0089
3.01097
3.01222
3.01204
3.01043
3.00572
2.99683
2.98332
2.96693
2.94912
2.93111
2.91523
2.90227
2.89091
2.88004
2.87361
2.87023
2.86785
2.86644
2.8641
2.85948
2.85372
2.84588
2.83924
2.83577
2.83352
2.83239
2.83204
2.83246
2.83485
2.8391
2.84222
2.84125
2.83923
2.84107
2.84483
2.84292
2.84093
2.84048
2.84047
2.8404
2.84052
2.84203
2.84591
2.85047
2.85436
2.85724
2.86006
2.86248
2.86665
1.40772
1.43024
1.49672
1.63955
1.81635
2.08729
2.36654
2.68089
2.89888
3.01766
3.11029
3.15499
3.13022
3.11305
3.09356
3.03988
3.004
2.98939
2.97281
2.96978
2.97384
2.98184
2.99428
3.00383
3.00704
3.00709
3.00581
3.00442
3.00391
3.00464
3.00859
3.01369
3.01479
3.01447
3.01204
3.00569
2.99528
2.98107
2.96416
2.94593
2.92803
2.91173
2.89764
2.8858
2.87557
2.86829
2.86454
2.86169
2.8596
2.85813
2.85422
2.84832
2.84097
2.8356
2.83242
2.83035
2.82914
2.82858
2.82871
2.83039
2.83355
2.83657
2.83716
2.83615
2.83804
2.84217
2.84053
2.83889
2.8387
2.83872
2.83913
2.84026
2.84265
2.84562
2.84893
2.85248
2.85595
2.85949
2.8625
2.8672
1.40001
1.40003
1.40042
1.40315
1.41256
1.44765
1.54004
1.72687
2.07914
2.53431
2.91371
3.12028
3.24393
3.23464
3.20562
3.1484
3.06474
2.97949
2.94823
2.94898
2.95409
2.97058
2.98555
2.98782
2.98551
2.98099
2.98087
2.98432
2.9901
2.99548
3.00224
3.00705
3.00752
3.00713
3.00452
2.99795
2.98753
2.97442
2.95859
2.94072
2.92346
2.90863
2.89535
2.88379
2.87348
2.86443
2.85875
2.85512
2.85192
2.84917
2.84545
2.84101
2.83772
2.83474
2.83186
2.83001
2.82923
2.82906
2.8294
2.83129
2.83399
2.8369
2.83911
2.83969
2.84096
2.84208
2.83965
2.83763
2.83685
2.83626
2.83601
2.83678
2.8395
2.84348
2.84746
2.85091
2.85403
2.85709
2.8599
2.86478
1.40001
1.4
1.4
1.40001
1.40001
1.40009
1.40091
1.40564
1.43897
1.5627
1.89043
2.31148
2.77766
2.98513
3.04167
3.06092
3.05347
3.03746
3.02322
3.00768
2.98265
2.97719
2.96912
2.95629
2.95043
2.95103
2.95567
2.96328
2.97227
2.98152
2.98699
2.9879
2.98818
2.98789
2.98678
2.98288
2.9751
2.96335
2.94747
2.92932
2.91267
2.89863
2.88622
2.87548
2.86602
2.85721
2.84918
2.84417
2.84044
2.83681
2.83391
2.83188
2.83084
2.82906
2.82653
2.82489
2.82481
2.82529
2.82582
2.82739
2.82938
2.83193
2.83431
2.8368
2.83961
2.83829
2.83563
2.8331
2.83129
2.83027
2.82985
2.83047
2.83344
2.83772
2.84186
2.8458
2.84959
2.85311
2.8558
2.8605
1.40001
1.40001
1.4
1.4
1.4
1.4
1.40001
1.4
1.40005
1.40118
1.41685
1.50726
1.73428
2.16758
2.56122
2.93223
3.04245
3.0876
3.08814
3.07422
3.03788
2.98382
2.96202
2.94352
2.9421
2.94353
2.9477
2.95324
2.95848
2.96474
2.97005
2.9734
2.97538
2.97462
2.97226
2.96782
2.95975
2.94752
2.93106
2.91211
2.89421
2.88116
2.87151
2.86357
2.85613
2.84793
2.84014
2.83515
2.8317
2.82825
2.82477
2.82246
2.82125
2.81998
2.81856
2.8181
2.81845
2.82088
2.82539
2.82903
2.83033
2.82905
2.82787
2.83064
2.8377
2.83696
2.8322
2.82841
2.82569
2.82415
2.82352
2.82391
2.82661
2.83102
2.83569
2.84028
2.84469
2.84866
2.85126
2.8553
1.40001
1.40001
1.40001
1.40001
1.40001
1.40001
1.40001
1.4
1.4
1.4
1.40001
1.40057
1.4064
1.46405
1.64789
1.99333
2.43627
2.75226
2.98793
2.99774
3.00118
3.01586
3.01275
2.99414
2.98087
2.97089
2.96234
2.95607
2.9531
2.9547
2.96026
2.96975
2.97434
2.97383
2.96937
2.96293
2.95413
2.9413
2.9248
2.90529
2.8842
2.86792
2.85781
2.85094
2.84543
2.83922
2.83253
2.82836
2.82545
2.82243
2.81969
2.8184
2.81829
2.81807
2.81757
2.81741
2.81759
2.81958
2.82275
2.82516
2.82681
2.82769
2.82783
2.83056
2.83613
2.83382
2.82844
2.82439
2.82091
2.8189
2.81817
2.81844
2.82079
2.82535
2.83061
2.83561
2.83995
2.84364
2.84599
2.84993
1.40001
1.40001
1.40001
1.40001
1.40001
1.40001
1.40001
1.40001
1.40001
1.40001
1.4
1.40001
1.4
1.40023
1.40405
1.42971
1.5851
1.88008
2.32632
2.6513
2.89888
3.02337
3.03799
3.03703
3.02209
2.99823
2.97146
2.96205
2.95805
2.9612
2.97072
2.97808
2.97919
2.97549
2.96737
2.9619
2.95418
2.94196
2.92572
2.90575
2.88246
2.86264
2.85125
2.84568
2.84182
2.83688
2.83022
2.8251
2.82108
2.8174
2.81538
2.81503
2.81543
2.81618
2.81712
2.81765
2.81798
2.81815
2.81867
2.8211
2.82519
2.82761
2.82775
2.82967
2.83395
2.83174
2.82609
2.822
2.81859
2.81647
2.81568
2.81561
2.81719
2.82144
2.82669
2.8315
2.83549
2.8389
2.84151
2.84612
1.40001
1.40001
1.40001
1.40001
1.40001
1.40001
1.40001
1.40001
1.40001
1.40001
1.40001
1.40001
1.4
1.4
1.4
1.40005
1.40244
1.42056
1.51387
1.80588
2.19422
2.61499
2.79356
2.9291
2.95813
2.96227
2.97705
2.9837
2.98009
2.97797
2.97803
2.97915
2.97892
2.97711
2.97376
2.96819
2.95969
2.94836
2.93368
2.91494
2.893
2.86927
2.852
2.84597
2.84173
2.83718
2.83174
2.82464
2.81847
2.81445
2.81254
2.81244
2.81286
2.81479
2.8168
2.81851
2.81872
2.81629
2.81529
2.81891
2.82427
2.82772
2.82868
2.82883
2.83218
2.83115
2.82572
2.82161
2.81851
2.81627
2.81533
2.81515
2.81662
2.82091
2.82599
2.83038
2.83404
2.83729
2.8399
2.84449
1.40001
1.40001
1.40001
1.40001
1.40001
1.40001
1.40001
1.40001
1.40001
1.40001
1.40001
1.40001
1.40001
1.40001
1.4
1.4
1.4
1.40003
1.40096
1.41635
1.48021
1.71789
2.1037
2.56514
2.78673
2.88623
2.95448
2.98393
2.99122
2.98037
2.95872
2.95649
2.95899
2.96622
2.96922
2.96545
2.9568
2.94731
2.93419
2.91614
2.89482
2.87289
2.85621
2.84988
2.84522
2.84023
2.8362
2.83379
2.82892
2.8228
2.81723
2.8128
2.81043
2.81107
2.81512
2.81926
2.82117
2.82096
2.8202
2.82195
2.82637
2.82855
2.83015
2.83119
2.83291
2.83162
2.82602
2.82186
2.81908
2.81687
2.81567
2.81539
2.81675
2.82124
2.82667
2.83132
2.83507
2.83805
2.84007
2.84415
1.40001
1.40001
1.40001
1.40001
1.40001
1.40001
1.40001
1.40001
1.40001
1.40001
1.40001
1.40001
1.40001
1.40001
1.40001
1.40001
1.4
1.4
1.4
1.40002
1.40053
1.40985
1.46934
1.64822
2.04135
2.43899
2.80534
2.89879
2.956
2.97912
2.96021
2.95964
2.95943
2.96216
2.9652
2.96102
2.94972
2.93786
2.92447
2.90828
2.89098
2.87194
2.85504
2.84815
2.84293
2.83778
2.83432
2.8333
2.83458
2.83118
2.82645
2.82203
2.81826
2.81581
2.81637
2.82133
2.82578
2.826
2.82485
2.82582
2.83034
2.83238
2.83239
2.83265
2.83386
2.83137
2.82536
2.82117
2.81907
2.81708
2.81567
2.81538
2.81701
2.82171
2.82749
2.83238
2.83595
2.83865
2.8404
2.84456
1.40001
1.40001
1.40001
1.40001
1.40001
1.40001
1.40001
1.40001
1.40001
1.40001
1.40001
1.40001
1.40001
1.40001
1.40001
1.40001
1.40001
1.40001
1.4
1.4
1.4
1.40001
1.40047
1.40555
1.46129
1.61644
1.96057
2.37716
2.7558
2.93483
2.96946
3.00162
2.99888
2.9839
2.97958
2.97338
2.95698
2.93674
2.91955
2.90306
2.88699
2.8686
2.85173
2.84429
2.83852
2.83301
2.82987
2.82961
2.83225
2.83141
2.82804
2.82606
2.82517
2.82446
2.82476
2.82867
2.8321
2.83086
2.82929
2.82949
2.83335
2.83664
2.83466
2.83365
2.8363
2.83541
2.83005
2.8255
2.82308
2.82181
2.82063
2.81981
2.82027
2.82357
2.82897
2.83384
2.83705
2.83963
2.84164
2.84611
1.40001
1.40001
1.40001
1.40001
1.40001
1.40001
1.40001
1.40001
1.40001
1.40001
1.40001
1.40001
1.40001
1.40001
1.40001
1.40001
1.40001
1.40001
1.40001
1.40001
1.4
1.4
1.4
1.40001
1.40044
1.40456
1.44231
1.60561
1.93308
2.34953
2.70348
2.91943
2.9794
3.00649
3.00942
3.00361
2.98784
2.96725
2.94312
2.92018
2.90185
2.8818
2.86359
2.85378
2.84581
2.83674
2.82975
2.82678
2.82898
2.83113
2.83114
2.83194
2.83265
2.83232
2.8331
2.83678
2.83696
2.83492
2.83361
2.83362
2.83683
2.83995
2.8392
2.83844
2.84
2.8385
2.83314
2.82868
2.82646
2.8257
2.82467
2.82354
2.82351
2.82594
2.83065
2.83536
2.83907
2.8421
2.84429
2.84891
1.40001
1.40001
1.40001
1.40001
1.40001
1.40001
1.40001
1.40001
1.40001
1.40001
1.40001
1.40001
1.40001
1.40001
1.40001
1.40001
1.40001
1.40001
1.40001
1.40001
1.40001
1.40001
1.40001
1.4
1.40001
1.40001
1.40026
1.40472
1.43585
1.60974
1.93495
2.35359
2.65835
2.90819
2.97719
2.9864
2.98567
2.98075
2.95975
2.93098
2.91046
2.88923
2.87358
2.8677
2.8619
2.85332
2.84444
2.83903
2.83588
2.83651
2.83938
2.84097
2.84069
2.83955
2.84022
2.84282
2.84093
2.839
2.83792
2.83791
2.84045
2.84285
2.84196
2.84096
2.84234
2.841
2.83746
2.83479
2.83263
2.83114
2.82997
2.82891
2.82862
2.8299
2.83332
2.83742
2.84151
2.84511
2.84776
2.85277
1.40001
1.40001
1.40001
1.40001
1.40001
1.40001
1.40001
1.40001
1.40001
1.40001
1.40001
1.40001
1.40001
1.40001
1.40001
1.40001
1.40001
1.40001
1.40001
1.40001
1.40001
1.40001
1.40001
1.40001
1.40001
1.4
1.4
1.40001
1.4002
1.40575
1.43691
1.59492
1.95278
2.43323
2.69004
2.84242
2.92607
2.93477
2.92947
2.91658
2.90112
2.87965
2.86847
2.86441
2.86119
2.85668
2.85425
2.85219
2.85011
2.84832
2.84754
2.8464
2.84428
2.84268
2.84262
2.8435
2.84192
2.84092
2.83987
2.83961
2.84195
2.8437
2.84307
2.84237
2.84366
2.84247
2.83959
2.8385
2.8371
2.83577
2.83522
2.83449
2.83375
2.83406
2.83661
2.84071
2.84476
2.84859
2.85156
2.85706
1.40001
1.40001
1.40001
1.40001
1.40001
1.40001
1.40001
1.40001
1.40001
1.40001
1.40001
1.40001
1.40001
1.40001
1.40001
1.40001
1.40001
1.40001
1.40001
1.40001
1.40001
1.40001
1.40001
1.40001
1.40001
1.40001
1.40001
1.40001
1.4
1.40001
1.40022
1.40544
1.44836
1.60461
1.99396
2.44332
2.80845
2.84543
2.88898
2.89432
2.87871
2.85748
2.85166
2.85067
2.84953
2.84959
2.85064
2.85101
2.85196
2.85025
2.84754
2.84556
2.84387
2.84242
2.84278
2.84306
2.84177
2.84143
2.84052
2.83999
2.84187
2.84322
2.84253
2.84234
2.84425
2.84367
2.8408
2.84041
2.83996
2.83899
2.8387
2.8387
2.83801
2.83786
2.83948
2.84306
2.84728
2.85152
2.85501
2.86128
1.40001
1.40001
1.40001
1.40001
1.40001
1.40001
1.40001
1.40001
1.40001
1.40001
1.40001
1.40001
1.40001
1.40001
1.40001
1.40001
1.40001
1.40001
1.40001
1.40001
1.40001
1.40001
1.40001
1.40001
1.40001
1.40001
1.40001
1.40001
1.4
1.40001
1.4
1.40001
1.4004
1.40565
1.46625
1.6511
2.04867
2.46471
2.79127
2.88739
2.87567
2.87046
2.86646
2.85097
2.8395
2.83899
2.84179
2.84468
2.84704
2.84633
2.8435
2.84213
2.84163
2.84107
2.84203
2.84181
2.84056
2.84024
2.83933
2.83859
2.84027
2.84207
2.84143
2.84175
2.84485
2.84436
2.84142
2.84074
2.84063
2.84017
2.84061
2.84199
2.84218
2.84174
2.84219
2.84486
2.84924
2.85391
2.85792
2.86508
1.40001
1.40001
1.40001
1.40001
1.40001
1.40001
1.40001
1.40001
1.40001
1.40001
1.40001
1.40001
1.40001
1.40001
1.40001
1.40001
1.40001
1.40001
1.40001
1.40001
1.40001
1.40001
1.40001
1.40001
1.40001
1.40001
1.40001
1.40001
1.40001
1.40001
1.4
1.4
1.4
1.40001
1.40081
1.4096
1.47581
1.71762
2.10631
2.50035
2.71633
2.84859
2.86746
2.85773
2.85878
2.85942
2.84667
2.83523
2.83468
2.83562
2.83593
2.83731
2.83768
2.83773
2.83891
2.83861
2.83653
2.83619
2.83587
2.83546
2.83751
2.8411
2.84086
2.84135
2.84499
2.84435
2.84198
2.84156
2.84164
2.84134
2.84227
2.84457
2.84569
2.84547
2.84561
2.84766
2.85152
2.85595
2.86004
2.86797
1.40001
1.40001
1.40001
1.40001
1.40001
1.40001
1.40001
1.40001
1.40001
1.40001
1.40001
1.40001
1.40001
1.40001
1.40001
1.40001
1.40001
1.40001
1.40001
1.40001
1.40001
1.40001
1.40001
1.40001
1.40001
1.40001
1.40001
1.40001
1.40001
1.40001
1.40001
1.40001
1.4
1.4
1.4
1.40003
1.40113
1.41621
1.49992
1.75335
2.1394
2.49402
2.69338
2.77289
2.84659
2.85205
2.8428
2.84182
2.84662
2.84441
2.84095
2.83429
2.83072
2.83011
2.83238
2.83312
2.83165
2.83128
2.83151
2.83163
2.83401
2.83947
2.83997
2.84094
2.84416
2.84382
2.84256
2.84263
2.84345
2.84366
2.84481
2.84715
2.84834
2.84835
2.8485
2.84996
2.85321
2.85757
2.86178
2.8703
1.40001
1.40001
1.40001
1.40001
1.40001
1.40001
1.40001
1.40001
1.40001
1.40001
1.40001
1.40001
1.40001
1.40001
1.40001
1.40001
1.40001
1.40001
1.40001
1.40001
1.40001
1.40001
1.40001
1.40001
1.40001
1.40001
1.40001
1.40001
1.40001
1.40001
1.40001
1.40001
1.40001
1.40001
1.4
1.4
1.4
1.40008
1.40191
1.41889
1.52455
1.7687
2.16128
2.44133
2.69345
2.75536
2.80702
2.83357
2.83798
2.83826
2.83229
2.8188
2.81674
2.81894
2.82254
2.82598
2.82822
2.82944
2.82961
2.8279
2.82841
2.83459
2.83724
2.83899
2.84232
2.84292
2.84266
2.84325
2.84545
2.84655
2.84754
2.84912
2.84969
2.84942
2.84945
2.85105
2.85445
2.85889
2.86315
2.87215
1.40001
1.40001
1.40001
1.40001
1.40001
1.40001
1.40001
1.40001
1.40001
1.40001
1.40001
1.40001
1.40001
1.40001
1.40001
1.40001
1.40001
1.40001
1.40001
1.40001
1.40001
1.40001
1.40001
1.40001
1.40001
1.40001
1.40001
1.40001
1.40001
1.40001
1.40001
1.40001
1.40001
1.40001
1.40001
1.40001
1.4
1.4
1.40001
1.40011
1.40291
1.4246
1.51801
1.77481
2.11134
2.41118
2.67329
2.75305
2.77061
2.79543
2.79906
2.79816
2.80564
2.82037
2.82384
2.82607
2.8276
2.82644
2.82492
2.82353
2.82297
2.82776
2.83221
2.83575
2.84111
2.84203
2.84205
2.84336
2.84593
2.84837
2.84982
2.85072
2.85049
2.8499
2.84988
2.85129
2.85509
2.86008
2.8645
2.874
1.40001
1.40001
1.40001
1.40001
1.40001
1.40001
1.40001
1.40001
1.40001
1.40001
1.40001
1.40001
1.40001
1.40001
1.40001
1.40001
1.40001
1.40001
1.40001
1.40001
1.40001
1.40001
1.40001
1.40001
1.40001
1.40001
1.40001
1.40001
1.40001
1.40001
1.40001
1.40001
1.40001
1.40001
1.40001
1.40001
1.40001
1.40001
1.40001
1.4
1.40001
1.40017
1.40259
1.42703
1.50699
1.739
2.05852
2.38608
2.58329
2.75757
2.79104
2.80197
2.82156
2.82382
2.81621
2.81076
2.8116
2.81289
2.81688
2.82194
2.82371
2.82522
2.82906
2.83249
2.83882
2.84017
2.84024
2.84256
2.84549
2.84862
2.85091
2.85116
2.85049
2.84981
2.84964
2.8514
2.85585
2.86107
2.86571
2.87609
1.40001
1.40001
1.40001
1.40001
1.40001
1.40001
1.40001
1.40001
1.40001
1.40001
1.40001
1.40001
1.40001
1.40001
1.40001
1.40001
1.40001
1.40001
1.40001
1.40001
1.40001
1.40001
1.40001
1.40001
1.40001
1.40001
1.40001
1.40001
1.40001
1.40001
1.40001
1.40001
1.40001
1.40001
1.40001
1.40001
1.40001
1.40001
1.40001
1.4
1.4
1.4
1.40001
1.4002
1.40221
1.42171
1.49326
1.70245
2.01075
2.32946
2.57529
2.69083
2.79158
2.79835
2.78164
2.78551
2.79184
2.79577
2.80891
2.82408
2.82933
2.83059
2.83098
2.82877
2.83195
2.83685
2.83801
2.84188
2.84497
2.84747
2.85147
2.85061
2.84927
2.84876
2.84871
2.85136
2.85626
2.86194
2.86715
2.87863
1.40001
1.40001
1.40001
1.40001
1.40001
1.40001
1.40001
1.40001
1.40001
1.40001
1.40001
1.40001
1.40001
1.40001
1.40001
1.40001
1.40001
1.40001
1.40001
1.40001
1.40001
1.40001
1.40001
1.40001
1.40001
1.40001
1.40001
1.40001
1.40001
1.40001
1.40001
1.40001
1.40001
1.40001
1.40001
1.40001
1.40001
1.40001
1.40001
1.40001
1.40001
1.40001
1.40001
1.40001
1.40001
1.40014
1.40187
1.41721
1.48601
1.65521
1.98001
2.28042
2.53649
2.71291
2.7583
2.80355
2.81027
2.80113
2.80397
2.81612
2.82182
2.82531
2.8276
2.82321
2.82371
2.83115
2.83457
2.84042
2.84563
2.8467
2.85044
2.85183
2.8492
2.84797
2.84897
2.85256
2.8575
2.86335
2.86915
2.88181
1.40001
1.40001
1.40001
1.40001
1.40001
1.40001
1.40001
1.40001
1.40001
1.40001
1.40001
1.40001
1.40001
1.40001
1.40001
1.40001
1.40001
1.40001
1.40001
1.40001
1.40001
1.40001
1.40001
1.40001
1.40001
1.40001
1.40001
1.40001
1.40001
1.40001
1.40001
1.40001
1.40001
1.40001
1.40001
1.40001
1.40001
1.40001
1.40001
1.40001
1.40001
1.40001
1.40001
1.40001
1.40001
1.40001
1.40001
1.40011
1.40162
1.41346
1.46924
1.64503
1.90337
2.25101
2.49553
2.66668
2.78057
2.76485
2.76822
2.78813
2.79687
2.80737
2.8192
2.82234
2.82246
2.83229
2.83591
2.83811
2.84308
2.84383
2.84685
2.85123
2.84896
2.84732
2.84889
2.85406
2.85877
2.86402
2.87019
2.88449
1.40001
1.40001
1.40001
1.40001
1.40001
1.40001
1.40001
1.40001
1.40001
1.40001
1.40001
1.40001
1.40001
1.40001
1.40001
1.40001
1.40001
1.40001
1.40001
1.40001
1.40001
1.40001
1.40001
1.40001
1.40001
1.40001
1.40001
1.40001
1.40001
1.40001
1.40001
1.40001
1.40001
1.40001
1.40001
1.40001
1.40001
1.40001
1.40001
1.40001
1.40001
1.40001
1.40001
1.40001
1.40001
1.40001
1.40001
1.4
1.40001
1.40007
1.40118
1.41175
1.45619
1.59891
1.89761
2.18887
2.50565
2.6495
2.74342
2.80298
2.798
2.80526
2.82176
2.82008
2.81591
2.82495
2.83334
2.83488
2.8389
2.83988
2.84217
2.84955
2.8519
2.8478
2.84821
2.85483
2.86178
2.86683
2.87242
2.88758
1.40001
1.40001
1.40001
1.40001
1.40001
1.40001
1.40001
1.40001
1.40001
1.40001
1.40001
1.40001
1.40001
1.40001
1.40001
1.40001
1.40001
1.40001
1.40001
1.40001
1.40001
1.40001
1.40001
1.40001
1.40001
1.40001
1.40001
1.40001
1.40001
1.40001
1.40001
1.40001
1.40001
1.40001
1.40001
1.40001
1.40001
1.40001
1.40001
1.40001
1.40001
1.40001
1.40001
1.40001
1.40001
1.40001
1.40001
1.40001
1.40001
1.40001
1.40001
1.40006
1.4008
1.40863
1.45389
1.58565
1.83052
2.18996
2.44041
2.67926
2.72774
2.75632
2.80141
2.79876
2.79724
2.81078
2.82509
2.83067
2.84033
2.84513
2.84328
2.84663
2.85206
2.85066
2.84982
2.85429
2.8621
2.8687
2.87463
2.89084
1.40001